 Gaussian 16, Revision A.03,
 Gaussian 16:  ES64L-G16RevA.03 25-Dec-2016

 ---------------------------------------------
 # b3lyp/6-311g* opt freq scrf(solvent=ch2cl2)
 ---------------------------------------------

 -------------------
 Title Card Required
 -------------------
 Symbolic Z-matrix:
 Charge =  0 Multiplicity = 1

 SCF Done:  E(RB3LYP) =  -476.183290231     A.U. after   13 cycles
 SCF Done:  E(RB3LYP) =  -476.187331008     A.U. after   11 cycles
 SCF Done:  E(RB3LYP) =  -476.188014740     A.U. after   11 cycles
 SCF Done:  E(RB3LYP) =  -476.185810392     A.U. after   11 cycles
 SCF Done:  E(RB3LYP) =  -476.188069212     A.U. after   10 cycles
 SCF Done:  E(RB3LYP) =  -476.188072125     A.U. after    9 cycles
 SCF Done:  E(RB3LYP) =  -476.188074875     A.U. after    9 cycles
 SCF Done:  E(RB3LYP) =  -476.188077240     A.U. after    9 cycles
 SCF Done:  E(RB3LYP) =  -476.188080495     A.U. after   10 cycles
 SCF Done:  E(RB3LYP) =  -476.188089422     A.U. after   10 cycles
 SCF Done:  E(RB3LYP) =  -476.188093650     A.U. after    9 cycles
 SCF Done:  E(RB3LYP) =  -476.188103165     A.U. after   10 cycles
 SCF Done:  E(RB3LYP) =  -476.188107180     A.U. after   10 cycles
 SCF Done:  E(RB3LYP) =  -476.188107833     A.U. after    9 cycles
 SCF Done:  E(RB3LYP) =  -476.188107895     A.U. after    8 cycles
 SCF Done:  E(RB3LYP) =  -476.188107928     A.U. after    7 cycles
 Optimization completed.
    -- Stationary point found.
 Normal termination of Gaussian 16 at Tue Jul 18 12:32:37 2023.

 ---------------------------------------------------------------------
 #N Geom=AllCheck Guess=TCheck SCRF=Check GenChk RB3LYP/6-311G(d) Freq
 ---------------------------------------------------------------------

 Structure from the checkpoint file:  "/home/kimariyb/g16/scratch/Gau-6012.chk"
 -------------------
 Title Card Required
 -------------------
 Charge =  0 Multiplicity = 1

                         Standard orientation:
 ---------------------------------------------------------------------
 Center     Atomic      Atomic             Coordinates (Angstroms)
 Number     Number       Type             X           Y           Z
 ---------------------------------------------------------------------
      1          6           0        0.959075    1.913697   -0.000670
      2          6           0        1.996907    0.984722   -0.002758
      3          6           0        1.744188   -0.395016   -0.002610
      4          6           0        0.416833   -0.821940   -0.001695
      5          6           0       -0.609976    0.119590    0.000250
      6          6           0       -0.365739    1.488264    0.000954
      7          1           0        1.181109    2.974801   -0.001367
      8          1           0        3.024381    1.335577   -0.005267
      9          1           0        0.170523   -1.875504   -0.002975
     10          6           0        2.880995   -1.386232    0.003502
     11          1           0        3.458083   -1.315768    0.930365
     12          1           0        2.519324   -2.411428   -0.087190
     13          1           0        3.573706   -1.198277   -0.821268
     14          1           0       -1.189004    2.188849    0.001665
     15          7           0       -2.005358   -0.354375    0.000156
     16          8           0       -2.204871   -1.564410   -0.003686
     17          8           0       -2.899418    0.484893    0.004075
 ---------------------------------------------------------------------

 SCF Done:  E(RB3LYP) =  -476.188107928     A.U. after    1 cycles

 The electronic state is 1-A.
 Alpha  occ. eigenvalues --  -19.15917 -19.15902 -14.55809 -10.23983 -10.20511
 Alpha  occ. eigenvalues --  -10.20039 -10.19889 -10.19558 -10.19503 -10.17424
 Alpha  occ. eigenvalues --   -1.24186  -1.06649  -0.89605  -0.81909  -0.78832
 Alpha  occ. eigenvalues --   -0.71425  -0.70197  -0.62284  -0.59349  -0.56167
 Alpha  occ. eigenvalues --   -0.54653  -0.52694  -0.51286  -0.48580  -0.45853
 Alpha  occ. eigenvalues --   -0.43564  -0.43399  -0.40212  -0.38218  -0.38150
 Alpha  occ. eigenvalues --   -0.36767  -0.32575  -0.32388  -0.30588  -0.28333
 Alpha  occ. eigenvalues --   -0.27035
 Alpha virt. eigenvalues --   -0.09992  -0.02730  -0.00770   0.04544   0.06359
 Alpha virt. eigenvalues --    0.08082   0.10242   0.10892   0.12507   0.14002
 Alpha virt. eigenvalues --    0.15371   0.15458   0.19699   0.23861   0.25375

 Mulliken charges:
               1
     1  C   -0.209084
     2  C   -0.173179
     3  C    0.046288
     4  C   -0.223315
     5  C    0.213284
     6  C   -0.195321
     7  H    0.225503
     8  H    0.220257
     9  H    0.241976
    10  C   -0.676468
    11  H    0.237758
    12  H    0.232244
    13  H    0.235805
    14  H    0.244399
    15  N    0.165061
    16  O   -0.292558
    17  O   -0.292651
 Sum of Mulliken charges =   0.00000

 Dipole moment (field-independent basis, Debye):
    X=              5.8417    Y=              1.4972    Z=              0.0095  Tot=              6.0305
 Quadrupole moment (field-independent basis, Debye-Ang):
   XX=            -62.9451   YY=            -53.8662   ZZ=            -59.1116
   XY=             -2.5650   XZ=              0.0265   YZ=             -0.0290

  Exact polarizability: 154.831  -0.913 134.159   0.069  -0.043  49.442
 Approx polarizability: 191.189  -3.492 189.134   0.027   0.039  63.416

                      1                      2                      3
                      A                      A                      A
 Frequencies --     35.2844                44.8614               162.8777
 Red. masses --      1.0703                 7.0694                 5.0624
 Frc consts  --      0.0008                 0.0084                 0.0791
 IR Inten    --      0.1020                 0.0322                 0.4415

                      4                      5                      6
                      A                      A                      A
 Frequencies --    211.3725               216.3621               357.5564
 Red. masses --      4.8926                 3.0101                 3.8075
 Frc consts  --      0.1288                 0.0830                 0.2868
 IR Inten    --      1.8849                 2.7989                 1.6874

                      7                      8                      9
                      A                      A                      A
 Frequencies --    399.7530               433.2890               502.8168
 Red. masses --      6.9860                 3.1565                 3.8631
 Frc consts  --      0.6578                 0.3491                 0.5754
 IR Inten    --      0.4468                 0.9369                 6.9358

                     10                     11                     12
                      A                      A                      A
 Frequencies --    506.5459               557.3306               684.5347
 Red. masses --      5.1487                 6.0719                 2.4514
 Frc consts  --      0.7784                 1.1112                 0.6768
 IR Inten    --      2.4894                 0.9063                19.7316

                     13                     14                     15
                      A                      A                      A
 Frequencies --    687.0174               740.9464               816.7080
 Red. masses --      6.9758                 3.8737                 1.6977
 Frc consts  --      1.9399                 1.2530                 0.6672
 IR Inten    --      6.1503                49.7635                25.1519

                     16                     17                     18
                      A                      A                      A
 Frequencies --    817.9553               906.1403               924.0452
 Red. masses --      6.7435                 1.3458                 4.9100
 Frc consts  --      2.6583                 0.6511                 2.4701
 IR Inten    --     46.6069                 6.0828                21.1612

                     19                     20                     21
                      A                      A                      A
 Frequencies --    954.0685              1000.8189              1013.6182
 Red. masses --      1.3862                 1.3244                 3.0432
 Frc consts  --      0.7434                 0.7816                 1.8422
 IR Inten    --      4.7462                 0.0958                 1.2365

                     22                     23                     24
                      A                      A                      A
 Frequencies --   1024.8794              1072.1563              1112.8209
 Red. masses --      1.9870                 1.5389                 1.4824
 Frc consts  --      1.2297                 1.0423                 1.0816
 IR Inten    --      1.6362                 7.4684                70.9605

                     25                     26                     27
                      A                      A                      A
 Frequencies --   1118.4948              1192.1789              1238.3878
 Red. masses --      2.0233                 1.1733                 2.8838
 Frc consts  --      1.4913                 0.9825                 2.6057
 IR Inten    --     22.3497                 3.9142                13.7720

                     28                     29                     30
                      A                      A                      A
 Frequencies --   1324.5152              1353.8199              1369.2744
 Red. masses --      1.5064                 4.5651                12.8504
 Frc consts  --      1.5571                 4.9297                14.1954
 IR Inten    --      9.4715                29.4979               546.4767

                     31                     32                     33
                      A                      A                      A
 Frequencies --   1427.4583              1459.6262              1495.6496
 Red. masses --      1.2402                 2.2280                 1.0434
 Frc consts  --      1.4889                 2.7968                 1.3752
 IR Inten    --      2.7218                 6.3077                11.6517

                     34                     35                     36
                      A                      A                      A
 Frequencies --   1507.9780              1519.2040              1577.7379
 Red. masses --      1.2417                 2.3616                 9.1339
 Frc consts  --      1.6636                 3.2114                13.3961
 IR Inten    --      9.2089                18.1408               436.9900

                     37                     38                     39
                      A                      A                      A
 Frequencies --   1624.8469              1659.5982              3037.1873
 Red. masses --      5.6303                 6.7508                 1.0382
 Frc consts  --      8.7581                10.9550                 5.6425
 IR Inten    --     18.6444                 2.6101                33.0412

                     40                     41                     42
                      A                      A                      A
 Frequencies --   3086.6754              3117.1927              3172.9920
 Red. masses --      1.1005                 1.1016                 1.0892
 Frc consts  --      6.1777                 6.3067                 6.4608
 IR Inten    --     24.5968                27.5171                13.8129

                     43                     44                     45
                      A                      A                      A
 Frequencies --   3195.5593              3220.7506              3234.4767
 Red. masses --      1.0932                 1.0910                 1.0929
 Frc consts  --      6.5770                 6.6676                 6.7367
 IR Inten    --     21.8771                 1.1733                 1.5059

 - Thermochemistry -
 -------------------
 Temperature   298.150 Kelvin.  Pressure   1.00000 Atm.
 Atom     1 has atomic number  6 and mass  12.00000

 Molecular mass:   137.04768 amu.
 Principal axes and moments of inertia in atomic units:
                           1         2         3
     Eigenvalues --   676.431211841.970822507.25561
           X            0.99951  -0.03132   0.00009
           Y            0.03132   0.99951  -0.00017
           Z           -0.00008   0.00018   1.00000
 This molecule is an asymmetric top.
 Rotational symmetry number  1.
 Warning -- assumption of classical behavior for rotation
           may cause significant error
 Rotational temperatures (Kelvin)      0.12805     0.04702     0.03455
 Rotational constants (GHZ):           2.66803     0.97979     0.71981
 Zero-point vibrational energy     341637.7 (Joules/Mol)
                                   81.65337 (Kcal/Mol)
 Warning -- explicit consideration of  11 degrees of freedom as
           vibrations may cause significant error
 Vibrational temperatures:     50.77    64.55   234.34   304.12   311.30
          (Kelvin)            514.44   575.16   623.41   723.44   728.81
                              801.87   984.89   988.46  1066.06  1175.06
                             1176.86  1303.73  1329.50  1372.69  1439.96
                             1458.37  1474.57  1542.59  1601.10  1609.26
                             1715.28  1781.76  1905.68  1947.84  1970.08
                             2053.79  2100.08  2151.91  2169.64  2185.80
                             2270.01  2337.79  2387.79  4369.84  4441.04
                             4484.95  4565.23  4597.70  4633.94  4653.69

 Zero-point correction=                           0.130123 (Hartree/Particle)
 Thermal correction to Energy=                    0.138837
 Thermal correction to Enthalpy=                  0.139781
 Thermal correction to Gibbs Free Energy=         0.094937
 Sum of electronic and zero-point Energies=           -476.057985
 Sum of electronic and thermal Energies=              -476.049271
 Sum of electronic and thermal Enthalpies=            -476.048327
 Sum of electronic and thermal Free Energies=         -476.093170

                     E (Thermal)             CV                S
                      KCal/Mol        Cal/Mol-Kelvin    Cal/Mol-Kelvin
 Total                   87.121             31.830             94.381
 Electronic               0.000              0.000              0.000
 Translational            0.889              2.981             40.657
 Rotational               0.889              2.981             29.525
 Vibrational             85.344             25.868             24.198
 Vibration     1          0.594              1.982              5.508
 Vibration     2          0.595              1.979              5.032
 Vibration     3          0.623              1.888              2.516
 Vibration     4          0.643              1.824              2.032
 Vibration     5          0.645              1.816              1.989
 Vibration     6          0.733              1.560              1.133
 Vibration     7          0.766              1.471              0.964
 Vibration     8          0.794              1.398              0.848
 Vibration     9          0.858              1.244              0.651
 Vibration    10          0.862              1.235              0.642
 Vibration    11          0.913              1.124              0.529

 Optimization completed.
    -- Stationary point found.
 Normal termination of Gaussian 16 at Tue Jul 18 12:34:02 2023.
