 Gaussian 16, Revision A.03,
 Gaussian 16:  ES64L-G16RevA.03 25-Dec-2016

 ---------------------------------------------
 # b3lyp/6-311g* opt freq scrf(solvent=ch2cl2)
 ---------------------------------------------

 -------------------
 Title Card Required
 -------------------
 Symbolic Z-matrix:
 Charge =  0 Multiplicity = 1

 SCF Done:  E(RB3LYP) =  -476.166460415     A.U. after   14 cycles
 SCF Done:  E(RB3LYP) =  -476.173759745     A.U. after   13 cycles
 SCF Done:  E(RB3LYP) =  -476.176193066     A.U. after   13 cycles
 SCF Done:  E(RB3LYP) =  -476.171414425     A.U. after   14 cycles
 SCF Done:  E(RB3LYP) =  -476.180809217     A.U. after   12 cycles
 SCF Done:  E(RB3LYP) =  -476.182177626     A.U. after   11 cycles
 SCF Done:  E(RB3LYP) =  -476.183047103     A.U. after   12 cycles
 SCF Done:  E(RB3LYP) =  -476.182779368     A.U. after   12 cycles
 SCF Done:  E(RB3LYP) =  -476.183607438     A.U. after   10 cycles
 SCF Done:  E(RB3LYP) =  -476.183650584     A.U. after   10 cycles
 SCF Done:  E(RB3LYP) =  -476.183717647     A.U. after   11 cycles
 SCF Done:  E(RB3LYP) =  -476.183736218     A.U. after   10 cycles
 SCF Done:  E(RB3LYP) =  -476.183739770     A.U. after   10 cycles
 SCF Done:  E(RB3LYP) =  -476.183739844     A.U. after    9 cycles
 Optimization completed.
    -- Stationary point found.
 Normal termination of Gaussian 16 at Tue Jul 18 12:41:49 2023.

 ---------------------------------------------------------------------
 #N Geom=AllCheck Guess=TCheck SCRF=Check GenChk RB3LYP/6-311G(d) Freq
 ---------------------------------------------------------------------

 Structure from the checkpoint file:  "/home/kimariyb/g16/scratch/Gau-9584.chk"
 -------------------
 Title Card Required
 -------------------
 Charge =  0 Multiplicity = 1

                         Standard orientation:
 ---------------------------------------------------------------------
 Center     Atomic      Atomic             Coordinates (Angstroms)
 Number     Number       Type             X           Y           Z
 ---------------------------------------------------------------------
      1          6           0       -2.560738   -0.206361    0.026931
      2          6           0       -1.826599    0.973117   -0.048041
      3          6           0       -0.425490    0.985506   -0.049220
      4          6           0        0.197510   -0.274528    0.011768
      5          6           0       -0.522156   -1.469137    0.070752
      6          6           0       -1.908276   -1.436762    0.088503
      7          1           0       -3.644498   -0.163487    0.033195
      8          1           0       -2.349961    1.921282   -0.109174
      9          6           0        0.291672    2.308875   -0.135952
     10          1           0        0.773700    2.560850    0.810463
     11          1           0        1.077637    2.303969   -0.892630
     12          1           0       -0.420325    3.097982   -0.381605
     13          1           0       -2.471183   -2.360969    0.147390
     14          1           0        0.017004   -2.405829    0.105413
     15          7           0        1.665484   -0.405396    0.017054
     16          8           0        2.337464    0.545981    0.401615
     17          8           0        2.147998   -1.471016   -0.354224
 ---------------------------------------------------------------------

 SCF Done:  E(RB3LYP) =  -476.183739844     A.U. after    1 cycles

 The electronic state is 1-A.
 Alpha  occ. eigenvalues --  -19.15894 -19.15754 -14.55710 -10.24067 -10.21686
 Alpha  occ. eigenvalues --  -10.20077 -10.19668 -10.19258 -10.19180 -10.17413
 Alpha  occ. eigenvalues --   -1.24100  -1.06518  -0.89630  -0.81221  -0.79501
 Alpha  occ. eigenvalues --   -0.72380  -0.68746  -0.62499  -0.60063  -0.55972
 Alpha  occ. eigenvalues --   -0.54571  -0.52513  -0.50602  -0.48451  -0.46006
 Alpha  occ. eigenvalues --   -0.43419  -0.43230  -0.40433  -0.38225  -0.38064
 Alpha  occ. eigenvalues --   -0.37077  -0.32363  -0.32080  -0.30697  -0.28020
 Alpha  occ. eigenvalues --   -0.27101
 Alpha virt. eigenvalues --   -0.09613  -0.02787  -0.01170   0.04726   0.06435
 Alpha virt. eigenvalues --    0.08034   0.10355   0.11063   0.11477   0.13694
 Alpha virt. eigenvalues --    0.15100   0.16296   0.19996   0.23472   0.25856

 Mulliken charges:
               1
     1  C   -0.174373
     2  C   -0.231385
     3  C    0.104554
     4  C    0.167939
     5  C   -0.193880
     6  C   -0.208263
     7  H    0.224094
     8  H    0.220965
     9  C   -0.659431
    10  H    0.242995
    11  H    0.236247
    12  H    0.225649
    13  H    0.224179
    14  H    0.245669
    15  N    0.153257
    16  O   -0.287191
    17  O   -0.291024
 Sum of Mulliken charges =  -0.00000

 Dipole moment (field-independent basis, Debye):
    X=             -5.2373    Y=              0.9656    Z=             -0.0150  Tot=              5.3256
 Quadrupole moment (field-independent basis, Debye-Ang):
   XX=            -60.8755   YY=            -52.8544   ZZ=            -59.7832
   XY=              2.6071   XZ=             -0.3274   YZ=             -2.1718

  Exact polarizability: 147.853   3.915 137.243  -0.069   2.376  51.785
 Approx polarizability: 185.981   4.116 187.917   0.987  10.256  69.249

                      1                      2                      3
                      A                      A                      A
 Frequencies --     48.7836               135.0974               207.6608
 Red. masses --      8.4608                 4.1506                 1.2208
 Frc consts  --      0.0119                 0.0446                 0.0310
 IR Inten    --      0.3810                 1.9336                 1.2884

                      4                      5                      6
                      A                      A                      A
 Frequencies --    231.9200               256.9797               360.5319
 Red. masses --      2.3929                 6.1192                 4.4811
 Frc consts  --      0.0758                 0.2381                 0.3432
 IR Inten    --      0.6809                 3.5414                 1.8534

                      7                      8                      9
                      A                      A                      A
 Frequencies --    392.8927               436.4005               493.1526
 Red. masses --      5.5693                 3.3963                 3.3179
 Frc consts  --      0.5065                 0.3811                 0.4754
 IR Inten    --      0.4916                 0.9677                 7.8670

                     10                     11                     12
                      A                      A                      A
 Frequencies --    543.9281               572.0251               680.2908
 Red. masses --      4.9937                 5.9064                 6.4086
 Frc consts  --      0.8705                 1.1387                 1.7474
 IR Inten    --      0.3757                 0.9524                12.7774

                     13                     14                     15
                      A                      A                      A
 Frequencies --    706.8702               740.9959               803.9245
 Red. masses --      4.1605                 1.7359                 2.4088
 Frc consts  --      1.2248                 0.5616                 0.9172
 IR Inten    --      3.5741                85.2180                15.5999

                     16                     17                     18
                      A                      A                      A
 Frequencies --    805.0696               875.2453               885.0611
 Red. masses --      5.3318                 8.6256                 1.3295
 Frc consts  --      2.0361                 3.8931                 0.6136
 IR Inten    --     10.5093                46.2053                 0.9360

                     19                     20                     21
                      A                      A                      A
 Frequencies --    972.0040              1005.9946              1022.2633
 Red. masses --      1.3621                 1.3205                 1.5641
 Frc consts  --      0.7582                 0.7874                 0.9630
 IR Inten    --      2.2282                 0.4362                 1.6377

                     22                     23                     24
                      A                      A                      A
 Frequencies --   1066.3424              1074.3099              1100.4475
 Red. masses --      1.6189                 2.1730                 3.6630
 Frc consts  --      1.0846                 1.4776                 2.6136
 IR Inten    --      7.3371                 3.4735                27.0572

                     25                     26                     27
                      A                      A                      A
 Frequencies --   1173.4129              1189.9069              1220.4044
 Red. masses --      1.6270                 1.1224                 2.8389
 Frc consts  --      1.3199                 0.9363                 2.4912
 IR Inten    --     13.9529                 8.2901                19.6118

                     28                     29                     30
                      A                      A                      A
 Frequencies --   1309.9001              1342.0845              1369.3478
 Red. masses --      1.7497                 4.1258                12.7010
 Frc consts  --      1.7688                 4.3785                14.0318
 IR Inten    --      5.2299                43.0341               478.3995

                     31                     32                     33
                      A                      A                      A
 Frequencies --   1428.8295              1467.6320              1492.7344
 Red. masses --      1.2116                 1.6969                 1.0904
 Frc consts  --      1.4574                 2.1535                 1.4316
 IR Inten    --      4.1894                14.6377                 6.7982

                     34                     35                     36
                      A                      A                      A
 Frequencies --   1507.2675              1516.6024              1571.3848
 Red. masses --      1.3247                 2.1310                 8.7467
 Frc consts  --      1.7731                 2.8879                12.7251
 IR Inten    --     19.1373                18.4581               386.7042

                     37                     38                     39
                      A                      A                      A
 Frequencies --   1618.6885              1652.4903              3053.7517
 Red. masses --      5.4703                 6.5004                 1.0358
 Frc consts  --      8.4448                10.4584                 5.6911
 IR Inten    --     36.4480                48.5080                22.6211

                     40                     41                     42
                      A                      A                      A
 Frequencies --   3111.0012              3124.0516              3177.3850
 Red. masses --      1.1005                 1.1040                 1.0875
 Frc consts  --      6.2754                 6.3480                 6.4686
 IR Inten    --     16.4695                32.7815                 4.7402

                     43                     44                     45
                      A                      A                      A
 Frequencies --   3189.5448              3201.5632              3229.8748
 Red. masses --      1.0912                 1.0954                 1.0929
 Frc consts  --      6.5403                 6.6150                 6.7171
 IR Inten    --     22.4477                24.1850                 2.2238

 - Thermochemistry -
 -------------------
 Temperature   298.150 Kelvin.  Pressure   1.00000 Atm.
 Atom     1 has atomic number  6 and mass  12.00000

 Molecular mass:   137.04768 amu.
 Principal axes and moments of inertia in atomic units:
                           1         2         3
     Eigenvalues --   799.832681438.766282190.94371
           X            0.99965   0.02648  -0.00110
           Y           -0.02649   0.99961  -0.00938
           Z            0.00085   0.00940   0.99996
 This molecule is an asymmetric top.
 Rotational symmetry number  1.
 Warning -- assumption of classical behavior for rotation
           may cause significant error
 Rotational temperatures (Kelvin)      0.10829     0.06020     0.03953
 Rotational constants (GHZ):           2.25640     1.25437     0.82373
 Zero-point vibrational energy     343125.2 (Joules/Mol)
                                   82.00888 (Kcal/Mol)
 Warning -- explicit consideration of  11 degrees of freedom as
           vibrations may cause significant error
 Vibrational temperatures:     70.19   194.37   298.78   333.68   369.74
          (Kelvin)            518.73   565.28   627.88   709.54   782.59
                              823.02   978.79  1017.03  1066.13  1156.67
                             1158.32  1259.28  1273.41  1398.50  1447.40
                             1470.81  1534.23  1545.69  1583.30  1688.28
                             1712.01  1755.89  1884.65  1930.96  1970.19
                             2055.77  2111.60  2147.71  2168.62  2182.05
                             2260.87  2328.93  2377.56  4393.67  4476.04
                             4494.81  4571.55  4589.04  4606.34  4647.07

 Zero-point correction=                           0.130689 (Hartree/Particle)
 Thermal correction to Energy=                    0.139014
 Thermal correction to Enthalpy=                  0.139958
 Thermal correction to Gibbs Free Energy=         0.097023
 Sum of electronic and zero-point Energies=           -476.053050
 Sum of electronic and thermal Energies=              -476.044726
 Sum of electronic and thermal Enthalpies=            -476.043782
 Sum of electronic and thermal Free Energies=         -476.086717

                     E (Thermal)             CV                S
                      KCal/Mol        Cal/Mol-Kelvin    Cal/Mol-Kelvin
 Total                   87.233             31.541             90.364
 Electronic               0.000              0.000              0.000
 Translational            0.889              2.981             40.657
 Rotational               0.889              2.981             29.312
 Vibrational             85.455             25.580             20.394
 Vibration     1          0.595              1.978              4.866
 Vibration     2          0.613              1.918              2.872
 Vibration     3          0.641              1.829              2.064
 Vibration     4          0.653              1.792              1.864
 Vibration     5          0.667              1.751              1.682
 Vibration     6          0.735              1.554              1.120
 Vibration     7          0.760              1.485              0.989
 Vibration     8          0.797              1.391              0.838
 Vibration     9          0.849              1.265              0.675
 Vibration    10          0.899              1.153              0.557
 Vibration    11          0.928              1.092              0.500

 Optimization completed.
    -- Stationary point found.
 Normal termination of Gaussian 16 at Tue Jul 18 12:43:11 2023.
