 Gaussian 16, Revision A.03,
 Gaussian 16:  ES64L-G16RevA.03 25-Dec-2016

 ---------------------------------------------
 # b3lyp/6-311g* opt freq scrf(solvent=ch2cl2)
 ---------------------------------------------

 -------------------
 Title Card Required
 -------------------
 Symbolic Z-matrix:
 Charge =  0 Multiplicity = 1

 SCF Done:  E(RB3LYP) =  -476.183245942     A.U. after   13 cycles
 SCF Done:  E(RB3LYP) =  -476.188007408     A.U. after   12 cycles
 SCF Done:  E(RB3LYP) =  -476.186665933     A.U. after   12 cycles
 SCF Done:  E(RB3LYP) =  -476.185449113     A.U. after   12 cycles
 SCF Done:  E(RB3LYP) =  -476.184245015     A.U. after   12 cycles
 SCF Done:  E(RB3LYP) =  -476.188306478     A.U. after    9 cycles
 SCF Done:  E(RB3LYP) =  -476.188837406     A.U. after   11 cycles
 SCF Done:  E(RB3LYP) =  -476.188843587     A.U. after   10 cycles
 SCF Done:  E(RB3LYP) =  -476.188846034     A.U. after   10 cycles
 SCF Done:  E(RB3LYP) =  -476.188846886     A.U. after    9 cycles
 SCF Done:  E(RB3LYP) =  -476.188847099     A.U. after    8 cycles
 Optimization completed.
    -- Stationary point found.
 Normal termination of Gaussian 16 at Tue Jul 18 12:36:34 2023.

 ---------------------------------------------------------------------
 #N Geom=AllCheck Guess=TCheck SCRF=Check GenChk RB3LYP/6-311G(d) Freq
 ---------------------------------------------------------------------

 Structure from the checkpoint file:  "/home/kimariyb/g16/scratch/Gau-8116.chk"
 -------------------
 Title Card Required
 -------------------
 Charge =  0 Multiplicity = 1

                         Standard orientation:
 ---------------------------------------------------------------------
 Center     Atomic      Atomic             Coordinates (Angstroms)
 Number     Number       Type             X           Y           Z
 ---------------------------------------------------------------------
      1          6           0       -0.041707    1.215537   -0.003298
      2          6           0        1.346755    1.204444   -0.009324
      3          6           0        2.064244    0.000031   -0.010446
      4          6           0        1.346771   -1.204402   -0.009660
      5          6           0       -0.041680   -1.215520   -0.003598
      6          6           0       -0.720980    0.000006    0.000005
      7          1           0       -0.596292    2.143918   -0.004370
      8          1           0        1.882396    2.147857   -0.015224
      9          1           0        1.882426   -2.147808   -0.015862
     10          1           0       -0.596254   -2.143907   -0.004876
     11          6           0        3.570036   -0.000012    0.012655
     12          1           0        3.938734   -0.001902    1.044080
     13          1           0        3.979073   -0.884502   -0.479326
     14          1           0        3.979112    0.886190   -0.476174
     15          7           0       -2.189539   -0.000009    0.003003
     16          8           0       -2.767703    1.082307    0.004138
     17          8           0       -2.767679   -1.082342    0.004953
 ---------------------------------------------------------------------

 SCF Done:  E(RB3LYP) =  -476.188847099     A.U. after    1 cycles

 The electronic state is 1-A.
 Alpha  occ. eigenvalues --  -19.15727 -19.15724 -14.55681 -10.23775 -10.20883
 Alpha  occ. eigenvalues --  -10.20204 -10.20201 -10.19273 -10.19271 -10.17541
 Alpha  occ. eigenvalues --   -1.24007  -1.06456  -0.89591  -0.82371  -0.77468
 Alpha  occ. eigenvalues --   -0.74605  -0.66878  -0.63635  -0.59427  -0.56933
 Alpha  occ. eigenvalues --   -0.54525  -0.52630  -0.48942  -0.48606  -0.46347
 Alpha  occ. eigenvalues --   -0.44904  -0.43500  -0.40164  -0.38193  -0.38132
 Alpha  occ. eigenvalues --   -0.36607  -0.32434  -0.32325  -0.30443  -0.27970
 Alpha  occ. eigenvalues --   -0.27420
 Alpha virt. eigenvalues --   -0.09840  -0.03071  -0.00500   0.04517   0.06643
 Alpha virt. eigenvalues --    0.07490   0.10382   0.11542   0.12122   0.14115
 Alpha virt. eigenvalues --    0.15258   0.15735   0.19137   0.23857   0.24847

 Mulliken charges:
               1
     1  C   -0.198683
     2  C   -0.215807
     3  C    0.074537
     4  C   -0.215725
     5  C   -0.198677
     6  C    0.212947
     7  H    0.244679
     8  H    0.221688
     9  H    0.221680
    10  H    0.244679
    11  C   -0.672807
    12  H    0.243109
    13  H    0.233670
    14  H    0.233648
    15  N    0.162895
    16  O   -0.295915
    17  O   -0.295917
 Sum of Mulliken charges =   0.00000

 Dipole moment (field-independent basis, Debye):
    X=              6.4438    Y=             -0.0003    Z=              0.0379  Tot=              6.4439
 Quadrupole moment (field-independent basis, Debye-Ang):
   XX=            -64.2252   YY=            -54.0462   ZZ=            -59.0930
   XY=             -0.0012   XZ=              0.1884   YZ=              0.0033

  Exact polarizability: 168.251  -0.006 126.965   0.697   0.001  49.463
 Approx polarizability: 201.106  -0.008 185.468   0.737  -0.007  63.494

                      1                      2                      3
                      A                      A                      A
 Frequencies --     24.1767                47.0150               107.2336
 Red. masses --      1.0383                 7.5145                 4.4841
 Frc consts  --      0.0004                 0.0098                 0.0304
 IR Inten    --      0.4200                 0.0116                 0.5833

                      4                      5                      6
                      A                      A                      A
 Frequencies --    219.9283               281.6802               360.8467
 Red. masses --      5.4611                 4.4715                 3.0210
 Frc consts  --      0.1556                 0.2090                 0.2318
 IR Inten    --      1.4490                 5.1272                 0.4297

                      7                      8                      9
                      A                      A                      A
 Frequencies --    362.2566               418.2718               477.7314
 Red. masses --      8.1144                 2.9844                 2.7572
 Frc consts  --      0.6274                 0.3076                 0.3707
 IR Inten    --      0.8420                 0.0088                14.0649

                     10                     11                     12
                      A                      A                      A
 Frequencies --    534.7767               625.6501               647.4861
 Red. masses --      7.0631                 5.6166                 6.9524
 Frc consts  --      1.1901                 1.2953                 1.7173
 IR Inten    --      2.5317                 7.6845                 1.1307

                     13                     14                     15
                      A                      A                      A
 Frequencies --    701.7947               743.3071               800.2011
 Red. masses --      3.6566                 3.9296                 5.3943
 Frc consts  --      1.0611                 1.2792                 2.0351
 IR Inten    --      7.0485                45.9524                10.7014

                     16                     17                     18
                      A                      A                      A
 Frequencies --    845.1033               849.7148               875.4271
 Red. masses --      1.2491                 1.6074                 9.9123
 Frc consts  --      0.5256                 0.6838                 4.4758
 IR Inten    --      0.0181                40.2176                53.3592

                     19                     20                     21
                      A                      A                      A
 Frequencies --    985.4089               989.1796              1017.1470
 Red. masses --      1.3502                 1.3192                 1.3969
 Frc consts  --      0.7725                 0.7605                 0.8515
 IR Inten    --      0.0025                 2.7986                 0.4289

                     22                     23                     24
                      A                      A                      A
 Frequencies --   1032.7958              1065.7352              1123.4348
 Red. masses --      2.8262                 1.5845                 3.2327
 Frc consts  --      1.7761                 1.0603                 2.4039
 IR Inten    --      4.3828                32.9173                98.9343

                     25                     26                     27
                      A                      A                      A
 Frequencies --   1139.3756              1206.5157              1233.4878
 Red. masses --      1.2625                 1.3096                 3.0357
 Frc consts  --      0.9656                 1.1232                 2.7214
 IR Inten    --     13.4684                 9.7528                 9.2412

                     28                     29                     30
                      A                      A                      A
 Frequencies --   1334.4298              1353.2881              1365.9338
 Red. masses --      1.4912                 4.6286                12.7335
 Frc consts  --      1.5645                 4.9944                13.9977
 IR Inten    --      3.3852                22.7164               685.3705

                     31                     32                     33
                      A                      A                      A
 Frequencies --   1423.8934              1441.3311              1498.4295
 Red. masses --      1.2363                 2.4799                 1.1626
 Frc consts  --      1.4768                 3.0353                 1.5380
 IR Inten    --      6.4296                 0.2127                 1.6776

                     34                     35                     36
                      A                      A                      A
 Frequencies --   1499.9121              1531.0151              1567.1891
 Red. masses --      1.0560                 2.3428                 9.9444
 Frc consts  --      1.3997                 3.2356                14.3904
 IR Inten    --     11.1961                16.6612               380.3638

                     37                     38                     39
                      A                      A                      A
 Frequencies --   1641.7125              1642.3765              3033.0353
 Red. masses --      5.7014                 7.2641                 1.0424
 Frc consts  --      9.0536                11.5446                 5.6500
 IR Inten    --     73.8404                57.0049                22.1497

                     40                     41                     42
                      A                      A                      A
 Frequencies --   3088.7016              3117.5643              3181.6205
 Red. masses --      1.0936                 1.1036                 1.0902
 Frc consts  --      6.1469                 6.3197                 6.5023
 IR Inten    --     27.4616                25.1276                23.0545

                     43                     44                     45
                      A                      A                      A
 Frequencies --   3182.8176              3229.7624              3229.9336
 Red. masses --      1.0908                 1.0922                 1.0930
 Frc consts  --      6.5107                 6.7129                 6.7181
 IR Inten    --     12.6095                 0.5219                 1.5024

 - Thermochemistry -
 -------------------
 Temperature   298.150 Kelvin.  Pressure   1.00000 Atm.
 Atom     1 has atomic number  6 and mass  12.00000

 Molecular mass:   137.04768 amu.
 Principal axes and moments of inertia in atomic units:
                           1         2         3
     Eigenvalues --   462.302672219.549752670.67086
           X            1.00000  -0.00000   0.00042
           Y            0.00000   1.00000   0.00002
           Z           -0.00042  -0.00002   1.00000
 This molecule is an asymmetric top.
 Rotational symmetry number  1.
 Warning -- assumption of classical behavior for rotation
           may cause significant error
 Rotational temperatures (Kelvin)      0.18735     0.03902     0.03243
 Rotational constants (GHZ):           3.90381     0.81311     0.67576
 Zero-point vibrational energy     341406.0 (Joules/Mol)
                                   81.59800 (Kcal/Mol)
 Warning -- explicit consideration of  10 degrees of freedom as
           vibrations may cause significant error
 Vibrational temperatures:     34.78    67.64   154.29   316.43   405.27
          (Kelvin)            519.18   521.21   601.80   687.35   769.42
                              900.17   931.59  1009.73  1069.45  1151.31
                             1215.92  1222.55  1259.54  1417.78  1423.21
                             1463.45  1485.96  1533.36  1616.37  1639.31
                             1735.91  1774.71  1919.95  1947.08  1965.27
                             2048.67  2073.75  2155.91  2158.04  2202.79
                             2254.84  2362.06  2363.01  4363.86  4443.95
                             4485.48  4577.64  4579.36  4646.91  4647.15

 Zero-point correction=                           0.130035 (Hartree/Particle)
 Thermal correction to Energy=                    0.138794
 Thermal correction to Enthalpy=                  0.139738
 Thermal correction to Gibbs Free Energy=         0.094458
 Sum of electronic and zero-point Energies=           -476.058812
 Sum of electronic and thermal Energies=              -476.050053
 Sum of electronic and thermal Enthalpies=            -476.049109
 Sum of electronic and thermal Free Energies=         -476.094389

                     E (Thermal)             CV                S
                      KCal/Mol        Cal/Mol-Kelvin    Cal/Mol-Kelvin
 Total                   87.095             31.835             95.300
 Electronic               0.000              0.000              0.000
 Translational            0.889              2.981             40.657
 Rotational               0.889              2.981             29.395
 Vibrational             85.317             25.873             25.247
 Vibration     1          0.593              1.985              6.258
 Vibration     2          0.595              1.979              4.939
 Vibration     3          0.606              1.943              3.318
 Vibration     4          0.647              1.811              1.960
 Vibration     5          0.681              1.708              1.523
 Vibration     6          0.735              1.553              1.118
 Vibration     7          0.736              1.550              1.112
 Vibration     8          0.781              1.431              0.898
 Vibration     9          0.834              1.299              0.716
 Vibration    10          0.890              1.173              0.577

                           ! Non-Optimized Parameters !
 Normal termination of Gaussian 16 at Tue Jul 18 12:37:46 2023.
