 Gaussian 16, Revision A.03,
 Gaussian 16:  ES64L-G16RevA.03 25-Dec-2016

 -------------------------------------------------
 # nmr revTPSSrevTPSS/gen scrf(solvent=chloroform)
 -------------------------------------------------

 -------------------
 Title Card Required
 -------------------
 Symbolic Z-matrix:
 Charge =  0 Multiplicity = 1

                         Standard orientation:
 ---------------------------------------------------------------------
 Center     Atomic      Atomic             Coordinates (Angstroms)
 Number     Number       Type             X           Y           Z
 ---------------------------------------------------------------------
      1          6           0        1.139349   -1.497088   -0.918775
      2          6           0        1.572082   -0.362797   -0.192410
      3          6           0        0.720364    0.792666    0.053169
      4          6           0        1.973226   -2.562358   -1.150155
      5          6           0        2.936876   -0.312296    0.184091
      6          6           0       -0.720366    0.792710   -0.053006
      7          6           0        1.362311    2.016235    0.322724
      8          6           0        3.293659   -2.551157   -0.670125
      9          6           0        3.766198   -1.435650   -0.028535
     10          6           0       -1.362207    2.016295   -0.322696
     11          6           0        3.488309    0.908076    0.683586
     12          6           0       -1.572137   -0.362709    0.192533
     13          6           0        2.747319    2.038346    0.681203
     14          6           0        0.647182    3.238171    0.204592
     15          6           0       -0.647038    3.238199   -0.204543
     16          6           0       -2.936876   -0.312232   -0.184208
     17          6           0       -2.747191    2.038421   -0.681326
     18          6           0       -3.488203    0.908174   -0.683774
     19          6           0       -1.139509   -1.496931    0.919053
     20          6           0       -3.766192   -1.435585    0.028281
     21          6           0       -1.973403   -2.562225    1.150300
     22          6           0       -3.293717   -2.551057    0.670014
     23          1           0        0.134926   -1.521768   -1.319421
     24          1           0        1.610463   -3.412317   -1.718391
     25          1           0        3.943245   -3.403186   -0.840397
     26          1           0        4.801228   -1.386680    0.296834
     27          1           0        4.531157    0.927741    0.984990
     28          1           0        3.189148    2.989141    0.963781
     29          1           0        1.172267    4.171035    0.385375
     30          1           0       -1.172123    4.171084   -0.385217
     31          1           0       -3.189004    2.989225   -0.963904
     32          1           0       -4.531048    0.927902   -0.985195
     33          1           0       -0.135142   -1.521554    1.319824
     34          1           0       -4.801227   -1.386628   -0.297072
     35          1           0       -1.610770   -3.412146    1.718675
     36          1           0       -3.943329   -3.403096    0.840167
 ---------------------------------------------------------------------

 SCF Done:  E(RrevTPSS-revTPSS) =  -846.572788944     A.U. after   13 cycles

      1  C    Isotropic =    66.0703   Anisotropy =   166.1412

      2  C    Isotropic =    62.4440   Anisotropy =   180.8002

      3  C    Isotropic =    65.8215   Anisotropy =   172.6696

      4  C    Isotropic =    70.3976   Anisotropy =   164.4321

      5  C    Isotropic =    61.8375   Anisotropy =   191.8428

      6  C    Isotropic =    65.8221   Anisotropy =   172.6709

      7  C    Isotropic =    61.7951   Anisotropy =   186.4269

      8  C    Isotropic =    68.3701   Anisotropy =   167.8446

      9  C    Isotropic =    66.5841   Anisotropy =   147.4695

     10  C    Isotropic =    61.7956   Anisotropy =   186.4266

     11  C    Isotropic =    66.3839   Anisotropy =   141.5782

     12  C    Isotropic =    62.4434   Anisotropy =   180.8043

     13  C    Isotropic =    68.0597   Anisotropy =   137.9710

     14  C    Isotropic =    66.9682   Anisotropy =   140.0436

     15  C    Isotropic =    66.9702   Anisotropy =   140.0434

     16  C    Isotropic =    61.8377   Anisotropy =   191.8436

     17  C    Isotropic =    68.0588   Anisotropy =   137.9710

     18  C    Isotropic =    66.3843   Anisotropy =   141.5765

     19  C    Isotropic =    66.0675   Anisotropy =   166.1446

     20  C    Isotropic =    66.5863   Anisotropy =   147.4726

     21  C    Isotropic =    70.4003   Anisotropy =   164.4335

     22  C    Isotropic =    68.3679   Anisotropy =   167.8470

     23  H    Isotropic =    23.5123   Anisotropy =    12.6837

     24  H    Isotropic =    24.6550   Anisotropy =     6.6569

     25  H    Isotropic =    24.3757   Anisotropy =     3.9465

     26  H    Isotropic =    23.9456   Anisotropy =     6.1467

     27  H    Isotropic =    23.9648   Anisotropy =     6.0618

     28  H    Isotropic =    24.0417   Anisotropy =     6.3713

     29  H    Isotropic =    24.0230   Anisotropy =     6.4580

     30  H    Isotropic =    24.0231   Anisotropy =     6.4580

     31  H    Isotropic =    24.0418   Anisotropy =     6.3713

     32  H    Isotropic =    23.9648   Anisotropy =     6.0620

     33  H    Isotropic =    23.5121   Anisotropy =    12.6816

     34  H    Isotropic =    23.9455   Anisotropy =     6.1465

     35  H    Isotropic =    24.6548   Anisotropy =     6.6559

     36  H    Isotropic =    24.3755   Anisotropy =     3.9467

 The electronic state is 1-A.
 Alpha  occ. eigenvalues --  -10.03600 -10.03573 -10.03181 -10.03181 -10.02949
 Alpha  occ. eigenvalues --  -10.02948 -10.02729 -10.02729 -10.02238 -10.02192
 Alpha  occ. eigenvalues --  -10.02191 -10.02183 -10.02128 -10.02128 -10.02013
 Alpha  occ. eigenvalues --  -10.02013 -10.01933 -10.01931 -10.01914 -10.01913
 Alpha  occ. eigenvalues --  -10.01836 -10.01836  -0.84643  -0.82523  -0.80445
 Alpha  occ. eigenvalues --   -0.77744  -0.75350  -0.74181  -0.71731  -0.70427
 Alpha  occ. eigenvalues --   -0.69352  -0.67735  -0.66952  -0.60161  -0.59771
 Alpha  occ. eigenvalues --   -0.57584  -0.57240  -0.57102  -0.54113  -0.51695
 Alpha  occ. eigenvalues --   -0.49576  -0.49188  -0.46498  -0.46428  -0.45816
 Alpha  occ. eigenvalues --   -0.43343  -0.42755  -0.41982  -0.40186  -0.40004
 Alpha  occ. eigenvalues --   -0.39832  -0.39138  -0.38793  -0.38344  -0.37378
 Alpha  occ. eigenvalues --   -0.36745  -0.36654  -0.35576  -0.33964  -0.33758
 Alpha  occ. eigenvalues --   -0.33342  -0.31734  -0.31518  -0.31027  -0.29674
 Alpha  occ. eigenvalues --   -0.29370  -0.28009  -0.27119  -0.26117  -0.24064
 Alpha  occ. eigenvalues --   -0.21835  -0.20227  -0.19817
 Alpha virt. eigenvalues --   -0.08372  -0.08215  -0.05818  -0.03793  -0.01729
 Alpha virt. eigenvalues --   -0.00323   0.01221   0.04274   0.04964   0.05106
 Alpha virt. eigenvalues --    0.05668   0.06293   0.07152   0.08299   0.08422

 Mulliken charges:
               1
     1  C   -0.026669
     2  C   -0.169605
     3  C    0.164753
     4  C   -0.028988
     5  C   -0.181636
     6  C    0.164761
     7  C   -0.239143
     8  C   -0.044318
     9  C    0.004394
    10  C   -0.239138
    11  C    0.008776
    12  C   -0.169672
    13  C    0.023118
    14  C    0.017843
    15  C    0.017866
    16  C   -0.181583
    17  C    0.023109
    18  C    0.008775
    19  C   -0.026636
    20  C    0.004390
    21  C   -0.028963
    22  C   -0.044345
    23  H    0.087404
    24  H    0.073108
    25  H    0.074037
    26  H    0.059361
    27  H    0.058198
    28  H    0.060477
    29  H    0.058874
    30  H    0.058875
    31  H    0.060476
    32  H    0.058197
    33  H    0.087393
    34  H    0.059359
    35  H    0.073109
    36  H    0.074041
 Sum of Mulliken charges =  -0.00000

 Dipole moment (field-independent basis, Debye):
    X=             -0.0002    Y=              0.0021    Z=              0.0002  Tot=              0.0021
 Quadrupole moment (field-independent basis, Debye-Ang):
   XX=           -109.8854   YY=           -110.3152   ZZ=           -133.7873
   XY=              0.0005   XZ=              5.5611   YZ=              0.0001

 Normal termination of Gaussian 16 at Sun Jul 16 22:50:30 2023.
