 Gaussian 16, Revision A.03,
 Gaussian 16:  ES64L-G16RevA.03 25-Dec-2016

 ---------------------------------------------------
 # freq=vcd b3lyp/6-311g(d) scrf(solvent=chloroform)
 ---------------------------------------------------

 -------------------
 Title Card Required
 -------------------
 Symbolic Z-matrix:
 Charge =  0 Multiplicity = 1

                         Standard orientation:
 ---------------------------------------------------------------------
 Center     Atomic      Atomic             Coordinates (Angstroms)
 Number     Number       Type             X           Y           Z
 ---------------------------------------------------------------------
      1          6           0        1.139349   -1.497088   -0.918775
      2          6           0        1.572082   -0.362797   -0.192410
      3          6           0        0.720364    0.792666    0.053169
      4          6           0        1.973226   -2.562358   -1.150155
      5          6           0        2.936876   -0.312296    0.184091
      6          6           0       -0.720366    0.792710   -0.053006
      7          6           0        1.362311    2.016235    0.322724
      8          6           0        3.293659   -2.551157   -0.670125
      9          6           0        3.766198   -1.435650   -0.028535
     10          6           0       -1.362207    2.016295   -0.322696
     11          6           0        3.488309    0.908076    0.683586
     12          6           0       -1.572137   -0.362709    0.192533
     13          6           0        2.747319    2.038346    0.681203
     14          6           0        0.647182    3.238171    0.204592
     15          6           0       -0.647038    3.238199   -0.204543
     16          6           0       -2.936876   -0.312232   -0.184208
     17          6           0       -2.747191    2.038421   -0.681326
     18          6           0       -3.488203    0.908174   -0.683774
     19          6           0       -1.139509   -1.496931    0.919053
     20          6           0       -3.766192   -1.435585    0.028281
     21          6           0       -1.973403   -2.562225    1.150300
     22          6           0       -3.293717   -2.551057    0.670014
     23          1           0        0.134926   -1.521768   -1.319421
     24          1           0        1.610463   -3.412317   -1.718391
     25          1           0        3.943245   -3.403186   -0.840397
     26          1           0        4.801228   -1.386680    0.296834
     27          1           0        4.531157    0.927741    0.984990
     28          1           0        3.189148    2.989141    0.963781
     29          1           0        1.172267    4.171035    0.385375
     30          1           0       -1.172123    4.171084   -0.385217
     31          1           0       -3.189004    2.989225   -0.963904
     32          1           0       -4.531048    0.927902   -0.985195
     33          1           0       -0.135142   -1.521554    1.319824
     34          1           0       -4.801227   -1.386628   -0.297072
     35          1           0       -1.610770   -3.412146    1.718675
     36          1           0       -3.943329   -3.403096    0.840167
 ---------------------------------------------------------------------

 SCF Done:  E(RB3LYP) =  -846.976306782     A.U. after   12 cycles

      1  C    Isotropic =    50.3167   Anisotropy =   178.7355

      2  C    Isotropic =    48.3614   Anisotropy =   196.3075

      3  C    Isotropic =    52.1571   Anisotropy =   187.0293

      4  C    Isotropic =    55.9221   Anisotropy =   174.8758

      5  C    Isotropic =    47.2594   Anisotropy =   206.4068

      6  C    Isotropic =    52.1578   Anisotropy =   187.0300

      7  C    Isotropic =    47.6305   Anisotropy =   200.8272

      8  C    Isotropic =    53.9676   Anisotropy =   178.4235

      9  C    Isotropic =    52.4502   Anisotropy =   157.2508

     10  C    Isotropic =    47.6312   Anisotropy =   200.8270

     11  C    Isotropic =    52.3209   Anisotropy =   151.8772

     12  C    Isotropic =    48.3606   Anisotropy =   196.3115

     13  C    Isotropic =    53.9005   Anisotropy =   147.8328

     14  C    Isotropic =    52.8506   Anisotropy =   150.3435

     15  C    Isotropic =    52.8527   Anisotropy =   150.3432

     16  C    Isotropic =    47.2595   Anisotropy =   206.4081

     17  C    Isotropic =    53.8995   Anisotropy =   147.8327

     18  C    Isotropic =    52.3213   Anisotropy =   151.8753

     19  C    Isotropic =    50.3135   Anisotropy =   178.7392

     20  C    Isotropic =    52.4524   Anisotropy =   157.2538

     21  C    Isotropic =    55.9249   Anisotropy =   174.8770

     22  C    Isotropic =    53.9653   Anisotropy =   178.4259

     23  H    Isotropic =    23.7281   Anisotropy =    12.8807

     24  H    Isotropic =    24.8549   Anisotropy =     6.8382

     25  H    Isotropic =    24.5816   Anisotropy =     4.2698

     26  H    Isotropic =    24.1976   Anisotropy =     6.4850

     27  H    Isotropic =    24.2285   Anisotropy =     6.4626

     28  H    Isotropic =    24.2800   Anisotropy =     6.7839

     29  H    Isotropic =    24.2631   Anisotropy =     6.8629

     30  H    Isotropic =    24.2631   Anisotropy =     6.8629

     31  H    Isotropic =    24.2801   Anisotropy =     6.7839

     32  H    Isotropic =    24.2285   Anisotropy =     6.4628

     33  H    Isotropic =    23.7278   Anisotropy =    12.8785

     34  H    Isotropic =    24.1975   Anisotropy =     6.4848

     35  H    Isotropic =    24.8548   Anisotropy =     6.8372

     36  H    Isotropic =    24.5814   Anisotropy =     4.2701

 The electronic state is 1-A.
 Alpha  occ. eigenvalues --  -10.19572 -10.19534 -10.19104 -10.19104 -10.18931
 Alpha  occ. eigenvalues --  -10.18930 -10.18727 -10.18727 -10.17871 -10.17832
 Alpha  occ. eigenvalues --  -10.17831 -10.17801 -10.17757 -10.17757 -10.17650
 Alpha  occ. eigenvalues --  -10.17649 -10.17572 -10.17572 -10.17495 -10.17495
 Alpha  occ. eigenvalues --  -10.17430 -10.17429  -0.90198  -0.88009  -0.85850
 Alpha  occ. eigenvalues --   -0.83058  -0.80589  -0.79373  -0.76846  -0.75487
 Alpha  occ. eigenvalues --   -0.74365  -0.72688  -0.71885  -0.64781  -0.64383
 Alpha  occ. eigenvalues --   -0.62148  -0.61721  -0.61635  -0.58462  -0.55906
 Alpha  occ. eigenvalues --   -0.53748  -0.53307  -0.50795  -0.50521  -0.49820
 Alpha  occ. eigenvalues --   -0.47283  -0.46926  -0.45789  -0.43950  -0.43938
 Alpha  occ. eigenvalues --   -0.43899  -0.43190  -0.42651  -0.42192  -0.41008
 Alpha  occ. eigenvalues --   -0.40594  -0.39901  -0.39335  -0.37517  -0.37099
 Alpha  occ. eigenvalues --   -0.36929  -0.35517  -0.35113  -0.33989  -0.33362
 Alpha  occ. eigenvalues --   -0.32907  -0.30622  -0.29580  -0.28503  -0.26088
 Alpha  occ. eigenvalues --   -0.23818  -0.22006  -0.21539
 Alpha virt. eigenvalues --   -0.06014  -0.05884  -0.03306  -0.01178   0.01104
 Alpha virt. eigenvalues --    0.02573   0.04083   0.05006   0.05533   0.05677
 Alpha virt. eigenvalues --    0.06770   0.07508   0.08657   0.08863   0.09202

 Mulliken charges:
               1
     1  C   -0.216209
     2  C   -0.069533
     3  C    0.025521
     4  C   -0.206294
     5  C    0.057448
     6  C    0.025574
     7  C    0.046071
     8  C   -0.201139
     9  C   -0.227219
    10  C    0.046071
    11  C   -0.220164
    12  C   -0.069581
    13  C   -0.231207
    14  C   -0.227477
    15  C   -0.227458
    16  C    0.057458
    17  C   -0.231214
    18  C   -0.220158
    19  C   -0.216207
    20  C   -0.227214
    21  C   -0.206278
    22  C   -0.201141
    23  H    0.236733
    24  H    0.204336
    25  H    0.204288
    26  H    0.205081
    27  H    0.205222
    28  H    0.207339
    29  H    0.207181
    30  H    0.207183
    31  H    0.207338
    32  H    0.205220
    33  H    0.236721
    34  H    0.205084
    35  H    0.204339
    36  H    0.204285
 Sum of Mulliken charges =  -0.00000

 Dipole moment (field-independent basis, Debye):
    X=             -0.0002    Y=              0.0950    Z=              0.0002  Tot=              0.0950
 Quadrupole moment (field-independent basis, Debye-Ang):
   XX=           -109.1359   YY=           -109.6283   ZZ=           -131.8867
   XY=              0.0005   XZ=              5.4976   YZ=              0.0001

  Exact polarizability: 428.989   0.005 409.882  38.945  -0.000 143.011
 Approx polarizability: 541.531   0.010 562.206  67.721  -0.002 206.272

                      1                      2                      3
                      A                      A                      A
 Frequencies --     50.7075                53.6859                81.8033
 Red. masses --      4.9954                 4.3177                 4.9819
 Frc consts  --      0.0076                 0.0073                 0.0196
 IR Inten    --      0.0856                 0.4195                 0.1835

                      4                      5                      6
                      A                      A                      A
 Frequencies --    107.6490               157.9735               169.6522
 Red. masses --      4.5697                 4.4124                 4.2892
 Frc consts  --      0.0312                 0.0649                 0.0727
 IR Inten    --      2.3649                 0.0951                 2.7499

                      7                      8                      9
                      A                      A                      A
 Frequencies --    224.5779               241.8177               272.3939
 Red. masses --      4.4353                 4.5301                 4.4760
 Frc consts  --      0.1318                 0.1561                 0.1957
 IR Inten    --      2.6835                 0.1312                 0.9660

                     10                     11                     12
                      A                      A                      A
 Frequencies --    308.3188               342.2748               397.1206
 Red. masses --      4.3536                 5.2539                 4.8325
 Frc consts  --      0.2438                 0.3626                 0.4490
 IR Inten    --      2.2417                 0.0167                 2.7108

                     13                     14                     15
                      A                      A                      A
 Frequencies --    414.9312               421.4492               446.3424
 Red. masses --      3.9593                 5.3329                 3.6139
 Frc consts  --      0.4016                 0.5581                 0.4242
 IR Inten    --      4.1008                 2.5541                 0.0995

                     16                     17                     18
                      A                      A                      A
 Frequencies --    470.8797               473.8219               496.4598
 Red. masses --      5.0874                 3.8725                 4.6966
 Frc consts  --      0.6646                 0.5122                 0.6820
 IR Inten    --      4.2038                 0.0115                 0.0419

                     19                     20                     21
                      A                      A                      A
 Frequencies --    520.2672               538.5415               547.7172
 Red. masses --      3.3316                 5.6786                 6.8719
 Frc consts  --      0.5313                 0.9704                 1.2146
 IR Inten    --     24.4087                 5.3513                 1.1852

                     22                     23                     24
                      A                      A                      A
 Frequencies --    551.9726               572.4317               609.9234
 Red. masses --      3.6106                 3.4884                 3.7553
 Frc consts  --      0.6481                 0.6735                 0.8231
 IR Inten    --     15.8648                 0.0081                 0.4846

                     25                     26                     27
                      A                      A                      A
 Frequencies --    636.3201               656.1891               683.3891
 Red. masses --      6.5365                 3.6786                 5.9773
 Frc consts  --      1.5594                 0.9332                 1.6447
 IR Inten    --     22.6320                17.9226                 5.1898

                     28                     29                     30
                      A                      A                      A
 Frequencies --    692.2750               724.4114               735.5885
 Red. masses --      5.5898                 3.6040                 4.6422
 Frc consts  --      1.5783                 1.1143                 1.4799
 IR Inten    --      0.3033                 0.1245                 4.0530

                     31                     32                     33
                      A                      A                      A
 Frequencies --    752.7752               762.9624               778.4951
 Red. masses --      1.2315                 1.3303                 2.3217
 Frc consts  --      0.4112                 0.4562                 0.8290
 IR Inten    --     54.2426                16.7746                27.1458

                     34                     35                     36
                      A                      A                      A
 Frequencies --    787.9109               804.3617               806.0446
 Red. masses --      3.2001                 2.5146                 3.7406
 Frc consts  --      1.1705                 0.9586                 1.4319
 IR Inten    --     20.4902                23.4372                 1.5309

                     37                     38                     39
                      A                      A                      A
 Frequencies --    815.1707               838.0457               854.3270
 Red. masses --      2.0396                 2.6190                 1.6738
 Frc consts  --      0.7985                 1.0837                 0.7198
 IR Inten    --      3.3386                13.8776               108.8686

                     40                     41                     42
                      A                      A                      A
 Frequencies --    871.9034               882.4340               882.8339
 Red. masses --      4.7009                 1.6296                 1.5522
 Frc consts  --      2.1056                 0.7476                 0.7128
 IR Inten    --      1.1899                 0.0347                13.9634

                     43                     44                     45
                      A                      A                      A
 Frequencies --    945.2812               952.4743               957.5564
 Red. masses --      3.5626                 4.3319                 1.4381
 Frc consts  --      1.8756                 2.3155                 0.7769
 IR Inten    --      1.7805                 2.2656                 0.9239

                     46                     47                     48
                      A                      A                      A
 Frequencies --    962.3907               963.4596               972.1134
 Red. masses --      1.3676                 1.3561                 1.3297
 Frc consts  --      0.7463                 0.7417                 0.7404
 IR Inten    --      3.3623                 0.1111                 2.7081

                     49                     50                     51
                      A                      A                      A
 Frequencies --    975.1277               991.8547               995.4953
 Red. masses --      1.3403                 1.2784                 1.2860
 Frc consts  --      0.7509                 0.7410                 0.7508
 IR Inten    --      1.0443                 0.3940                 0.7170

                     52                     53                     54
                      A                      A                      A
 Frequencies --   1055.9205              1066.7515              1090.7136
 Red. masses --      3.2205                 2.2564                 2.4800
 Frc consts  --      2.1156                 1.5128                 1.7383
 IR Inten    --      5.1503                10.8357                 2.5811

                     55                     56                     57
                      A                      A                      A
 Frequencies --   1102.4437              1158.6164              1177.0480
 Red. masses --      2.9755                 1.7717                 1.3031
 Frc consts  --      2.1307                 1.4012                 1.0637
 IR Inten    --      0.1479                 7.7182                 2.2177

                     58                     59                     60
                      A                      A                      A
 Frequencies --   1182.1506              1188.7385              1192.8755
 Red. masses --      1.3545                 1.1554                 1.2139
 Frc consts  --      1.1152                 0.9619                 1.0177
 IR Inten    --      3.6744                 0.2982                 0.0111

                     61                     62                     63
                      A                      A                      A
 Frequencies --   1194.2686              1217.8727              1235.1516
 Red. masses --      1.1824                 2.5233                 1.8620
 Frc consts  --      0.9936                 2.2051                 1.6737
 IR Inten    --      5.3723                 1.5760                 1.7527

                     64                     65                     66
                      A                      A                      A
 Frequencies --   1242.9827              1246.7183              1259.0005
 Red. masses --      2.2444                 1.8041                 1.7219
 Frc consts  --      2.0430                 1.6521                 1.6081
 IR Inten    --      0.6071                 2.5592                10.9878

                     67                     68                     69
                      A                      A                      A
 Frequencies --   1295.4733              1307.3835              1352.8807
 Red. masses --      1.7398                 1.8520                 2.9823
 Frc consts  --      1.7203                 1.8651                 3.2161
 IR Inten    --      9.0891                 1.4785                11.2389

                     70                     71                     72
                      A                      A                      A
 Frequencies --   1377.6934              1393.4975              1406.5392
 Red. masses --      5.6407                 6.1706                 5.6998
 Frc consts  --      6.3079                 7.0597                 6.6437
 IR Inten    --      0.0163                 1.2614                 0.7894

                     73                     74                     75
                      A                      A                      A
 Frequencies --   1420.9992              1440.5013              1459.8197
 Red. masses --      6.2851                 2.7315                 2.0225
 Frc consts  --      7.4773                 3.3395                 2.5394
 IR Inten    --      3.5791                 0.9481                 0.6408

                     76                     77                     78
                      A                      A                      A
 Frequencies --   1459.8257              1485.0078              1487.0407
 Red. masses --      2.0225                 2.2732                 2.2998
 Frc consts  --      2.5394                 2.9536                 2.9962
 IR Inten    --      0.6537                10.8957                13.0415

                     79                     80                     81
                      A                      A                      A
 Frequencies --   1526.6702              1543.3457              1556.8913
 Red. masses --      3.2391                 3.1041                 3.3978
 Frc consts  --      4.4481                 4.3563                 4.8525
 IR Inten    --      7.4057                 5.4068                 0.4699

                     82                     83                     84
                      A                      A                      A
 Frequencies --   1571.7241              1617.3216              1646.7225
 Red. masses --      4.1785                 7.9420                 6.7062
 Frc consts  --      6.0817                12.2398                10.7144
 IR Inten    --      6.9861                 0.0398                 0.9074

                     85                     86                     87
                      A                      A                      A
 Frequencies --   1668.9144              1670.1521              1679.4716
 Red. masses --      5.5227                 5.4993                 6.5326
 Frc consts  --      9.0629                 9.0380                10.8562
 IR Inten    --      0.0021                 3.3714                 3.1280

                     88                     89                     90
                      A                      A                      A
 Frequencies --   1684.4384              3159.4843              3159.8704
 Red. masses --      6.2421                 1.0863                 1.0865
 Frc consts  --     10.4350                 6.3893                 6.3919
 IR Inten    --      1.3034                 1.1287                 6.4405

                     91                     92                     93
                      A                      A                      A
 Frequencies --   3161.3617              3161.7885              3163.5278
 Red. masses --      1.0867                 1.0866                 1.0864
 Frc consts  --      6.3991                 6.4000                 6.4059
 IR Inten    --     17.0839                 2.6754                 0.7044

                     94                     95                     96
                      A                      A                      A
 Frequencies --   3173.1793              3173.3039              3178.7520
 Red. masses --      1.0898                 1.0899                 1.0969
 Frc consts  --      6.4653                 6.4663                 6.5301
 IR Inten    --     35.8490                 1.4484                 0.5599

                     97                     98                     99
                      A                      A                      A
 Frequencies --   3179.6140              3182.1123              3188.6780
 Red. masses --      1.0966                 1.0962                 1.0956
 Frc consts  --      6.5318                 6.5397                 6.5634
 IR Inten    --    103.4428               106.3368                61.6813

                    100                    101                    102
                      A                      A                      A
 Frequencies --   3189.0805              3213.8299              3213.9331
 Red. masses --      1.0956                 1.0921                 1.0929
 Frc consts  --      6.5647                 6.6461                 6.6511
 IR Inten    --     57.1498                 9.3156                13.1584

 - Thermochemistry -
 -------------------
 Temperature   298.150 Kelvin.  Pressure   1.00000 Atm.
 Atom     1 has atomic number  6 and mass  12.00000

 Molecular mass:   278.10955 amu.
 Principal axes and moments of inertia in atomic units:
                           1         2         3
     Eigenvalues --  4007.001256375.388929628.09907
           X            0.99999   0.00000   0.00398
           Y           -0.00000   1.00000  -0.00000
           Z           -0.00398   0.00000   0.99999
 This molecule is an asymmetric top.
 Rotational symmetry number  1.
 Warning -- assumption of classical behavior for rotation
           may cause significant error
 Rotational temperatures (Kelvin)      0.02162     0.01359     0.00900
 Rotational constants (GHZ):           0.45040     0.28308     0.18745
 Zero-point vibrational energy     755537.4 (Joules/Mol)
                                  180.57777 (Kcal/Mol)
 Warning -- explicit consideration of  24 degrees of freedom as
           vibrations may cause significant error
 Vibrational temperatures:     72.96    77.24   117.70   154.88   227.29
          (Kelvin)            244.09   323.12   347.92   391.91   443.60
                              492.46   571.37   596.99   606.37   642.19
                              677.49   681.72   714.29   748.55   774.84
                              788.04   794.17   823.60   877.54   915.52
                              944.11   983.24   996.03  1042.27  1058.35
                             1083.08  1097.73  1120.08  1133.63  1157.30
                             1159.72  1172.85  1205.76  1229.19  1254.47
                             1269.63  1270.20  1360.05  1370.40  1377.71
                             1384.67  1386.20  1398.65  1402.99  1427.06
                             1432.30  1519.23  1534.82  1569.29  1586.17
                             1666.99  1693.51  1700.85  1710.33  1716.28
                             1718.29  1752.25  1777.11  1788.37  1793.75
                             1811.42  1863.90  1881.03  1946.49  1982.19
                             2004.93  2023.70  2044.50  2072.56  2100.35
                             2100.36  2136.59  2139.52  2196.54  2220.53
                             2240.02  2261.36  2326.97  2369.27  2401.20
                             2402.98  2416.38  2423.53  4545.79  4546.35
                             4548.49  4549.11  4551.61  4565.50  4565.68
                             4573.52  4574.76  4578.35  4587.80  4588.38
                             4623.98  4624.13

 Zero-point correction=                           0.287769 (Hartree/Particle)
 Thermal correction to Energy=                    0.302625
 Thermal correction to Enthalpy=                  0.303569
 Thermal correction to Gibbs Free Energy=         0.245947
 Sum of electronic and zero-point Energies=           -846.688538
 Sum of electronic and thermal Energies=              -846.673682
 Sum of electronic and thermal Enthalpies=            -846.672737
 Sum of electronic and thermal Free Energies=         -846.730360

                     E (Thermal)             CV                S
                      KCal/Mol        Cal/Mol-Kelvin    Cal/Mol-Kelvin
 Total                  189.900             63.955            121.276
 Electronic               0.000              0.000              0.000
 Translational            0.889              2.981             42.767
 Rotational               0.889              2.981             33.864
 Vibrational            188.123             57.993             44.646
 Vibration     1          0.595              1.977              4.790
 Vibration     2          0.596              1.976              4.677
 Vibration     3          0.600              1.962              3.847
 Vibration     4          0.606              1.943              3.311
 Vibration     5          0.621              1.894              2.574
 Vibration     6          0.625              1.880              2.439
 Vibration     7          0.649              1.804              1.922
 Vibration     8          0.658              1.776              1.789
 Vibration     9          0.675              1.724              1.581
 Vibration    10          0.698              1.658              1.371
 Vibration    11          0.721              1.591              1.202
 Vibration    12          0.764              1.476              0.973
 Vibration    13          0.778              1.438              0.909
 Vibration    14          0.784              1.424              0.887
 Vibration    15          0.806              1.369              0.807
 Vibration    16          0.828              1.315              0.735
 Vibration    17          0.831              1.308              0.727
 Vibration    18          0.852              1.258              0.667
 Vibration    19          0.875              1.205              0.609
 Vibration    20          0.894              1.165              0.568
 Vibration    21          0.903              1.145              0.549
 Vibration    22          0.907              1.135              0.540
 Vibration    23          0.929              1.091              0.500
 Vibration    24          0.969              1.011              0.433

 Normal termination of Gaussian 16 at Sun Jul 16 23:48:45 2023.
