 Gaussian 16, Revision A.03,
 Gaussian 16:  ES64L-G16RevA.03 25-Dec-2016

 ---------------------------------------------------------
 # TD(nstates=50) scrf(solvent=chloroform) pbe1pbe/6-311g*
 ---------------------------------------------------------

 -------------------
 Title Card Required
 -------------------
 Symbolic Z-matrix:
 Charge =  0 Multiplicity = 1

                         Standard orientation:
 ---------------------------------------------------------------------
 Center     Atomic      Atomic             Coordinates (Angstroms)
 Number     Number       Type             X           Y           Z
 ---------------------------------------------------------------------
      1          6           0        1.139349   -1.497088   -0.918775
      2          6           0        1.572082   -0.362797   -0.192410
      3          6           0        0.720364    0.792666    0.053169
      4          6           0        1.973226   -2.562358   -1.150155
      5          6           0        2.936876   -0.312296    0.184091
      6          6           0       -0.720366    0.792710   -0.053006
      7          6           0        1.362311    2.016235    0.322724
      8          6           0        3.293659   -2.551157   -0.670125
      9          6           0        3.766198   -1.435650   -0.028535
     10          6           0       -1.362207    2.016295   -0.322696
     11          6           0        3.488309    0.908076    0.683586
     12          6           0       -1.572137   -0.362709    0.192533
     13          6           0        2.747319    2.038346    0.681203
     14          6           0        0.647182    3.238171    0.204592
     15          6           0       -0.647038    3.238199   -0.204543
     16          6           0       -2.936876   -0.312232   -0.184208
     17          6           0       -2.747191    2.038421   -0.681326
     18          6           0       -3.488203    0.908174   -0.683774
     19          6           0       -1.139509   -1.496931    0.919053
     20          6           0       -3.766192   -1.435585    0.028281
     21          6           0       -1.973403   -2.562225    1.150300
     22          6           0       -3.293717   -2.551057    0.670014
     23          1           0        0.134926   -1.521768   -1.319421
     24          1           0        1.610463   -3.412317   -1.718391
     25          1           0        3.943245   -3.403186   -0.840397
     26          1           0        4.801228   -1.386680    0.296834
     27          1           0        4.531157    0.927741    0.984990
     28          1           0        3.189148    2.989141    0.963781
     29          1           0        1.172267    4.171035    0.385375
     30          1           0       -1.172123    4.171084   -0.385217
     31          1           0       -3.189004    2.989225   -0.963904
     32          1           0       -4.531048    0.927902   -0.985195
     33          1           0       -0.135142   -1.521554    1.319824
     34          1           0       -4.801227   -1.386628   -0.297072
     35          1           0       -1.610770   -3.412146    1.718675
     36          1           0       -3.943329   -3.403096    0.840167
 ---------------------------------------------------------------------

 SCF Done:  E(RPBE1PBE) =  -845.966823892     A.U. after   12 cycles

 Excitation energies and oscillator strengths:

 Excited State   1:      Singlet-A      3.5375 eV  350.49 nm  f=0.0024  <S**2>=0.000
      72 -> 75         0.43192
      73 -> 74         0.55109
 This state for optimization and/or second-order correction.
 Total Energy, E(TD-HF/TD-DFT) =  -845.836824386
 Copying the excited state density for this state as the 1-particle RhoCI density.

 Excited State   2:      Singlet-A      3.7608 eV  329.68 nm  f=0.0118  <S**2>=0.000
      72 -> 74        -0.47810
      73 -> 75         0.51317

 Excited State   3:      Singlet-A      3.9597 eV  313.12 nm  f=0.5474  <S**2>=0.000
      71 -> 74         0.11817
      72 -> 74         0.51178
      73 -> 75         0.46194

 Excited State   4:      Singlet-A      4.1538 eV  298.49 nm  f=0.1241  <S**2>=0.000
      72 -> 75         0.53622
      73 -> 74        -0.42408
      73 -> 76        -0.12136

 Excited State   5:      Singlet-A      4.2410 eV  292.35 nm  f=0.0294  <S**2>=0.000
      70 -> 75        -0.15212
      71 -> 74         0.57801
      72 -> 76        -0.33853
      73 -> 77        -0.13170

 Excited State   6:      Singlet-A      4.4194 eV  280.54 nm  f=0.0128  <S**2>=0.000
      71 -> 75         0.59973
      73 -> 76         0.35837

 Excited State   7:      Singlet-A      4.5701 eV  271.29 nm  f=0.1746  <S**2>=0.000
      70 -> 74        -0.28515
      71 -> 75        -0.29117
      72 -> 75         0.12265
      72 -> 77        -0.12928
      73 -> 76         0.54003

 Excited State   8:      Singlet-A      4.6995 eV  263.82 nm  f=0.4304  <S**2>=0.000
      71 -> 74         0.36273
      72 -> 76         0.55239
      73 -> 75        -0.10478
      73 -> 77         0.17916

 Excited State   9:      Singlet-A      4.9058 eV  252.73 nm  f=0.0023  <S**2>=0.000
      70 -> 75         0.49975
      72 -> 76        -0.23405
      73 -> 77         0.42380

 Excited State  10:      Singlet-A      4.9515 eV  250.39 nm  f=0.0670  <S**2>=0.000
      70 -> 74         0.49453
      71 -> 77        -0.11347
      72 -> 77        -0.42685
      73 -> 76         0.12327

 Excited State  11:      Singlet-A      5.2256 eV  237.26 nm  f=0.0803  <S**2>=0.000
      70 -> 75         0.32130
      71 -> 76         0.48277
      73 -> 77        -0.39128

 Excited State  12:      Singlet-A      5.4290 eV  228.37 nm  f=0.0015  <S**2>=0.000
      68 -> 75        -0.16164
      69 -> 74         0.38072
      70 -> 74        -0.15339
      70 -> 76         0.27902
      71 -> 77        -0.32042
      72 -> 77         0.13467
      72 -> 78        -0.28678
      73 -> 79         0.11125

 Excited State  13:      Singlet-A      5.4438 eV  227.75 nm  f=0.0857  <S**2>=0.000
      69 -> 75         0.16106
      70 -> 75        -0.30786
      71 -> 76         0.48298
      73 -> 77         0.30973
      73 -> 78        -0.13903

 Excited State  14:      Singlet-A      5.5769 eV  222.32 nm  f=1.1801  <S**2>=0.000
      70 -> 74         0.35404
      71 -> 75        -0.16975
      72 -> 77         0.51466
      73 -> 76         0.20071

 Excited State  15:      Singlet-A      5.5903 eV  221.78 nm  f=0.0075  <S**2>=0.000
      69 -> 75         0.51366
      73 -> 78         0.46518

 Excited State  16:      Singlet-A      5.6663 eV  218.81 nm  f=0.0344  <S**2>=0.000
      69 -> 74         0.46656
      70 -> 76        -0.25543
      71 -> 77         0.39396
      72 -> 78        -0.17705

 Excited State  17:      Singlet-A      5.8254 eV  212.83 nm  f=0.1546  <S**2>=0.000
      67 -> 74         0.15459
      68 -> 74        -0.17737
      69 -> 75        -0.40126
      70 -> 75        -0.11565
      72 -> 79         0.10861
      73 -> 78         0.47681

 Excited State  18:      Singlet-A      5.8745 eV  211.06 nm  f=0.0562  <S**2>=0.000
      68 -> 75         0.42311
      69 -> 74        -0.12185
      70 -> 76        -0.16820
      71 -> 77        -0.24249
      72 -> 78        -0.38632
      73 -> 79        -0.24000

 Excited State  19:      Singlet-A      5.9099 eV  209.79 nm  f=0.0721  <S**2>=0.000
      68 -> 75         0.32837
      69 -> 74         0.20138
      70 -> 76         0.39636
      72 -> 78         0.29986
      73 -> 79        -0.30091

 Excited State  20:      Singlet-A      5.9204 eV  209.42 nm  f=0.0114  <S**2>=0.000
      67 -> 74         0.24574
      68 -> 74         0.54186
      72 -> 79         0.34414

 Excited State  21:      Singlet-A      6.0877 eV  203.66 nm  f=0.0910  <S**2>=0.000
      67 -> 75        -0.20896
      68 -> 75         0.22344
      69 -> 74        -0.15701
      70 -> 76         0.31947
      71 -> 77         0.33108
      72 -> 78        -0.25986
      73 -> 79         0.29874

 Excited State  22:      Singlet-A      6.2224 eV  199.25 nm  f=0.0110  <S**2>=0.000
      67 -> 74         0.55415
      68 -> 74        -0.18726
      68 -> 76        -0.10289
      69 -> 75         0.13469
      71 -> 79        -0.10960
      72 -> 79        -0.18340
      72 -> 80        -0.20719

 Excited State  23:      Singlet-A      6.3223 eV  196.11 nm  f=0.0132  <S**2>=0.000
      67 -> 75        -0.23513
      68 -> 75         0.15958
      69 -> 74         0.11164
      69 -> 76        -0.35316
      70 -> 76        -0.14461
      71 -> 78         0.37217
      72 -> 78         0.13610
      73 -> 80        -0.23947

 Excited State  24:      Singlet-A      6.3456 eV  195.39 nm  f=0.0177  <S**2>=0.000
      66 -> 74        -0.10529
      67 -> 75         0.42009
      69 -> 76        -0.30897
      71 -> 77         0.12935
      71 -> 78         0.29839
      73 -> 80         0.27241

 Excited State  25:      Singlet-A      6.3733 eV  194.54 nm  f=0.2277  <S**2>=0.000
      65 -> 74        -0.10017
      68 -> 74        -0.22446
      69 -> 77         0.10824
      70 -> 77        -0.42890
      72 -> 79         0.43481
      72 -> 80        -0.12570

 Excited State  26:      Singlet-A      6.3855 eV  194.16 nm  f=0.3405  <S**2>=0.000
      67 -> 75         0.28375
      68 -> 75         0.28721
      69 -> 74         0.10855
      70 -> 76        -0.11401
      71 -> 78        -0.18582
      72 -> 78         0.16409
      73 -> 79         0.44606

 Excited State  27:      Singlet-A      6.4886 eV  191.08 nm  f=0.0474  <S**2>=0.000
      65 -> 74        -0.13465
      66 -> 75         0.21910
      67 -> 74        -0.19408
      68 -> 74        -0.10537
      68 -> 76        -0.25701
      69 -> 77         0.14603
      70 -> 77         0.42930
      70 -> 78        -0.12464
      71 -> 79        -0.17198
      72 -> 80        -0.18604

 Excited State  28:      Singlet-A      6.4897 eV  191.05 nm  f=0.0285  <S**2>=0.000
      66 -> 74         0.65977
      71 -> 78         0.11821

 Excited State  29:      Singlet-A      6.5350 eV  189.72 nm  f=0.0104  <S**2>=0.000
      65 -> 74         0.26605
      66 -> 75         0.59079
      70 -> 77        -0.13172

 Excited State  30:      Singlet-A      6.5952 eV  187.99 nm  f=0.0877  <S**2>=0.000
      65 -> 74         0.60423
      66 -> 75        -0.21302
      67 -> 74        -0.15602
      72 -> 80        -0.11323

 Excited State  31:      Singlet-A      6.6031 eV  187.77 nm  f=0.0338  <S**2>=0.000
      64 -> 74         0.13148
      65 -> 75         0.18083
      66 -> 74        -0.10578
      69 -> 76         0.45310
      71 -> 78         0.42091
      73 -> 79         0.10048

 Excited State  32:      Singlet-A      6.6120 eV  187.51 nm  f=0.0771  <S**2>=0.000
      65 -> 75         0.63689
      69 -> 76        -0.14651
      71 -> 78        -0.11025
      73 -> 80        -0.16200

 Excited State  33:      Singlet-A      6.6421 eV  186.66 nm  f=0.0105  <S**2>=0.000
      67 -> 74         0.11170
      68 -> 74        -0.16385
      68 -> 76         0.36852
      70 -> 77         0.26779
      70 -> 78         0.17619
      71 -> 79         0.28206
      72 -> 79         0.25838
      72 -> 80        -0.15810
      73 -> 78        -0.10247

 Excited State  34:      Singlet-A      6.7418 eV  183.90 nm  f=0.0001  <S**2>=0.000
      65 -> 75         0.11220
      67 -> 75        -0.29303
      73 -> 80         0.51198
      73 -> 81        -0.25489

 Excited State  35:      Singlet-A      6.7926 eV  182.53 nm  f=0.0750  <S**2>=0.000
      67 -> 74         0.10843
      68 -> 74        -0.11885
      70 -> 77         0.12857
      71 -> 79        -0.31617
      72 -> 79         0.16292
      72 -> 80         0.50649
      72 -> 81        -0.10732

 Excited State  36:      Singlet-A      6.8302 eV  181.52 nm  f=0.1951  <S**2>=0.000
      68 -> 76         0.48408
      70 -> 78        -0.19141
      71 -> 79        -0.39764
      72 -> 80        -0.16669

 Excited State  37:      Singlet-A      6.8978 eV  179.74 nm  f=0.0056  <S**2>=0.000
      64 -> 75        -0.10346
      67 -> 76         0.13956
      68 -> 76         0.12097
      69 -> 77         0.40123
      70 -> 78        -0.36085
      71 -> 79         0.29199
      72 -> 80         0.21094

 Excited State  38:      Singlet-A      6.9236 eV  179.07 nm  f=0.0001  <S**2>=0.000
      64 -> 74        -0.11026
      67 -> 75        -0.12077
      71 -> 82         0.13360
      73 -> 80         0.18007
      73 -> 81         0.60871

 Excited State  39:      Singlet-A      6.9979 eV  177.17 nm  f=0.0025  <S**2>=0.000
      67 -> 76         0.12504
      71 -> 80        -0.16271
      71 -> 81         0.21318
      72 -> 81         0.30292
      72 -> 83        -0.13446
      73 -> 82         0.51991

 Excited State  40:      Singlet-A      7.0426 eV  176.05 nm  f=0.0346  <S**2>=0.000
      63 -> 75         0.32293
      64 -> 74         0.35776
      66 -> 76        -0.31635
      67 -> 77        -0.10121
      68 -> 77        -0.19512
      70 -> 79        -0.10943
      73 -> 81         0.11808
      73 -> 83        -0.15562

 Excited State  41:      Singlet-A      7.0554 eV  175.73 nm  f=0.0121  <S**2>=0.000
      62 -> 75         0.22403
      63 -> 74        -0.21659
      64 -> 75        -0.22744
      65 -> 76        -0.19171
      69 -> 77         0.14919
      70 -> 78         0.18581
      71 -> 80         0.13991
      72 -> 81         0.39030
      73 -> 82        -0.17840

 Excited State  42:      Singlet-A      7.0691 eV  175.39 nm  f=0.0257  <S**2>=0.000
      62 -> 75        -0.22351
      63 -> 74         0.12147
      64 -> 75         0.22705
      65 -> 76         0.19178
      67 -> 76         0.44809
      72 -> 81         0.23739
      72 -> 83         0.12426
      73 -> 82        -0.16674

 Excited State  43:      Singlet-A      7.0764 eV  175.21 nm  f=0.0299  <S**2>=0.000
      62 -> 75         0.14940
      63 -> 74        -0.15094
      64 -> 75        -0.13655
      65 -> 76        -0.11482
      67 -> 76         0.40245
      70 -> 78         0.25754
      71 -> 80        -0.14950
      72 -> 80        -0.10564
      72 -> 81        -0.34866

 Excited State  44:      Singlet-A      7.1018 eV  174.58 nm  f=0.0013  <S**2>=0.000
      63 -> 75        -0.26738
      64 -> 74         0.36366
      66 -> 76         0.20389
      68 -> 77        -0.25463
      69 -> 76        -0.10113
      73 -> 83         0.34676

 Excited State  45:      Singlet-A      7.1043 eV  174.52 nm  f=0.0028  <S**2>=0.000
      63 -> 75         0.25502
      64 -> 74        -0.14745
      66 -> 76        -0.22866
      72 -> 82        -0.12222
      73 -> 83         0.55057

 Excited State  46:      Singlet-A      7.1497 eV  173.41 nm  f=0.0196  <S**2>=0.000
      62 -> 75         0.18963
      63 -> 74         0.55477
      64 -> 75        -0.19529
      65 -> 76        -0.17236
      66 -> 77        -0.16898
      71 -> 80        -0.10814

 Excited State  47:      Singlet-A      7.1989 eV  172.23 nm  f=0.0473  <S**2>=0.000
      63 -> 74         0.14357
      69 -> 77         0.37289
      70 -> 78         0.24771
      71 -> 80         0.41096
      72 -> 81        -0.13370
      73 -> 82         0.17762

 Excited State  48:      Singlet-A      7.2038 eV  172.11 nm  f=0.0003  <S**2>=0.000
      62 -> 74         0.53116
      64 -> 74        -0.14472
      65 -> 77        -0.14037
      67 -> 77        -0.13199
      68 -> 77        -0.25129
      70 -> 79        -0.24724

 Excited State  49:      Singlet-A      7.2067 eV  172.04 nm  f=0.0019  <S**2>=0.000
      69 -> 77        -0.10270
      72 -> 83         0.63011
      73 -> 82         0.17974
      73 -> 84         0.10679

 Excited State  50:      Singlet-A      7.2600 eV  170.78 nm  f=0.0232  <S**2>=0.000
      62 -> 75         0.35249
      64 -> 75         0.42101
      65 -> 76        -0.22754
      67 -> 76         0.13591
      69 -> 77        -0.10287
      70 -> 78        -0.16964
      71 -> 80         0.16896

 The electronic state is 1-A.
 Alpha  occ. eigenvalues --  -10.25095 -10.25053 -10.24584 -10.24584 -10.24381
 Alpha  occ. eigenvalues --  -10.24380 -10.24151 -10.24151 -10.23204 -10.23158
 Alpha  occ. eigenvalues --  -10.23158 -10.23129 -10.23077 -10.23077 -10.22955
 Alpha  occ. eigenvalues --  -10.22955 -10.22860 -10.22860 -10.22806 -10.22806
 Alpha  occ. eigenvalues --  -10.22738 -10.22738  -0.92955  -0.90699  -0.88479
 Alpha  occ. eigenvalues --   -0.85609  -0.83067  -0.81823  -0.79216  -0.77821
 Alpha  occ. eigenvalues --   -0.76649  -0.74939  -0.74105  -0.66788  -0.66379
 Alpha  occ. eigenvalues --   -0.64072  -0.63605  -0.63525  -0.60229  -0.57611
 Alpha  occ. eigenvalues --   -0.55398  -0.54911  -0.52353  -0.52016  -0.51294
 Alpha  occ. eigenvalues --   -0.48655  -0.48332  -0.47117  -0.45265  -0.45235
 Alpha  occ. eigenvalues --   -0.45136  -0.44451  -0.43849  -0.43463  -0.42366
 Alpha  occ. eigenvalues --   -0.41722  -0.41370  -0.40423  -0.38599  -0.38275
 Alpha  occ. eigenvalues --   -0.38123  -0.36505  -0.36071  -0.35243  -0.34292
 Alpha  occ. eigenvalues --   -0.33847  -0.31825  -0.30751  -0.29626  -0.27114
 Alpha  occ. eigenvalues --   -0.24785  -0.22918  -0.22423
 Alpha virt. eigenvalues --   -0.05707  -0.05580  -0.02898  -0.00744   0.01658
 Alpha virt. eigenvalues --    0.03179   0.04809   0.06100   0.06703   0.06815
 Alpha virt. eigenvalues --    0.07958   0.08718   0.09593   0.09982   0.10436

 Mulliken charges:
               1
     1  C   -0.227629
     2  C   -0.091382
     3  C    0.037156
     4  C   -0.214972
     5  C    0.043847
     6  C    0.037218
     7  C    0.026105
     8  C   -0.211405
     9  C   -0.233389
    10  C    0.026106
    11  C   -0.223869
    12  C   -0.091437
    13  C   -0.235952
    14  C   -0.232801
    15  C   -0.232778
    16  C    0.043862
    17  C   -0.235961
    18  C   -0.223861
    19  C   -0.227631
    20  C   -0.233385
    21  C   -0.214952
    22  C   -0.211410
    23  H    0.255358
    24  H    0.217511
    25  H    0.217314
    26  H    0.217839
    27  H    0.217060
    28  H    0.219830
    29  H    0.219354
    30  H    0.219357
    31  H    0.219829
    32  H    0.217058
    33  H    0.255343
    34  H    0.217841
    35  H    0.217514
    36  H    0.217312
 Sum of Mulliken charges =  -0.00000

 Dipole moment (field-independent basis, Debye):
    X=             -0.0002    Y=              0.0636    Z=              0.0002  Tot=              0.0636
 Quadrupole moment (field-independent basis, Debye-Ang):
   XX=           -106.6413   YY=           -107.2139   ZZ=           -131.7652
   XY=              0.0005   XZ=              5.9781   YZ=              0.0001

 Normal termination of Gaussian 16 at Sun Jul 16 23:31:50 2023.
