 Gaussian 16, Revision C.01,
 Gaussian 16:  ES64L-G16RevC.01  3-Jul-2019

 --------------------------------------------
 # opt freq b3lyp/6-311g** scrf(solvent=CCl4)
 --------------------------------------------

 -------------------
 Title Card Required
 -------------------
 Symbolic Z-matrix:
 Charge =  0 Multiplicity = 1

 SCF Done:  E(RB3LYP) =  -248.520748699     A.U. after   12 cycles
 SCF Done:  E(RB3LYP) =  -248.566223395     A.U. after   12 cycles
 SCF Done:  E(RB3LYP) =  -248.572818349     A.U. after   11 cycles
 SCF Done:  E(RB3LYP) =  -248.583401432     A.U. after   11 cycles
 SCF Done:  E(RB3LYP) =  -248.595476491     A.U. after   13 cycles
 SCF Done:  E(RB3LYP) =  -248.597562316     A.U. after   11 cycles
 SCF Done:  E(RB3LYP) =  -248.601202653     A.U. after   11 cycles
 SCF Done:  E(RB3LYP) =  -248.601963034     A.U. after   10 cycles
 SCF Done:  E(RB3LYP) =  -248.602253857     A.U. after    9 cycles
 SCF Done:  E(RB3LYP) =  -248.602403154     A.U. after   10 cycles
 SCF Done:  E(RB3LYP) =  -248.602643796     A.U. after    9 cycles
 SCF Done:  E(RB3LYP) =  -248.602680894     A.U. after    9 cycles
 SCF Done:  E(RB3LYP) =  -248.602675841     A.U. after    9 cycles
 SCF Done:  E(RB3LYP) =  -248.602717069     A.U. after    9 cycles
 SCF Done:  E(RB3LYP) =  -248.602717415     A.U. after    9 cycles
 SCF Done:  E(RB3LYP) =  -248.602729259     A.U. after    8 cycles
 SCF Done:  E(RB3LYP) =  -248.602733917     A.U. after    8 cycles
 SCF Done:  E(RB3LYP) =  -248.602735020     A.U. after    7 cycles
 SCF Done:  E(RB3LYP) =  -248.602735093     A.U. after    6 cycles
 Optimization completed.
    -- Stationary point found.
 Normal termination of Gaussian 16 at Thu Aug  3 16:07:22 2023.

 ----------------------------------------------------------------------
 #N Geom=AllCheck Guess=TCheck SCRF=Check GenChk RB3LYP/6-311G(d,p) Fre
 q
 ----------------------------------------------------------------------

 Structure from the checkpoint file:  "/kimariyb/g16/scratch/Gau-43976.chk"
 -------------------
 Title Card Required
 -------------------
 Charge =  0 Multiplicity = 1

                         Standard orientation:
 ---------------------------------------------------------------------
 Center     Atomic      Atomic             Coordinates (Angstroms)
 Number     Number       Type             X           Y           Z
 ---------------------------------------------------------------------
      1          6           0        1.812545   -0.568671    0.000691
      2          1           0        1.716996   -1.654881   -0.052809
      3          1           0        2.404261   -0.219907   -0.847671
      4          1           0        2.356232   -0.303687    0.910072
      5          6           0        0.482929    0.166674   -0.001822
      6          8           0        0.427279    1.388772   -0.000104
      7          7           0       -0.622290   -0.629774   -0.002429
      8          6           0       -1.976799   -0.102729    0.001330
      9          1           0       -2.521328   -0.419094    0.895576
     10          1           0       -1.905752    0.983304   -0.005749
     11          1           0       -2.529435   -0.430546   -0.883676
     12          1           0       -0.495228   -1.628585    0.000895
 ---------------------------------------------------------------------

 SCF Done:  E(RB3LYP) =  -248.602735093     A.U. after    1 cycles

 The electronic state is 1-A.
 Alpha  occ. eigenvalues --  -19.07471 -14.33571 -10.26856 -10.19867 -10.17295
 Alpha  occ. eigenvalues --   -1.03280  -0.92089  -0.75229  -0.68852  -0.58531
 Alpha  occ. eigenvalues --   -0.50611  -0.46888  -0.46041  -0.42626  -0.40823
 Alpha  occ. eigenvalues --   -0.39707  -0.38984  -0.35604  -0.25674  -0.25459
 Alpha virt. eigenvalues --    0.02731   0.03475   0.06461   0.08476   0.11325
 Alpha virt. eigenvalues --    0.12110   0.12885   0.13376   0.17401   0.22346
 Alpha virt. eigenvalues --    0.26644   0.28775   0.29239   0.31353   0.31971

 Mulliken charges:
               1
     1  C   -0.305515
     2  H    0.102322
     3  H    0.137663
     4  H    0.138279
     5  C    0.311236
     6  O   -0.410433
     7  N   -0.403692
     8  C   -0.173424
     9  H    0.120230
    10  H    0.133122
    11  H    0.120179
    12  H    0.230033
 Sum of Mulliken charges =   0.00000

 Dipole moment (field-independent basis, Debye):
    X=             -0.9068    Y=             -4.0776    Z=              0.0171  Tot=              4.1773
 Quadrupole moment (field-independent basis, Debye-Ang):
   XX=            -26.8187   YY=            -33.2923   ZZ=            -31.0141
   XY=             -1.1034   XZ=              0.0119   YZ=             -0.0162

  Exact polarizability:      60.561       2.316      50.038       0.003      -0.002      35.526
 Approx polarizability:      65.446       6.674      72.305       0.022       0.003      45.284

                      1                      2                      3
                      A                      A                      A
 Frequencies --     59.7576                82.9505               173.0098
 Red. masses --      1.0535                 1.1132                 2.8354
 Frc consts  --      0.0022                 0.0045                 0.0500
 IR Inten    --      2.8378                 0.8632                 8.8606

                      4                      5                      6
                      A                      A                      A
 Frequencies --    290.1537               434.2797               467.6635
 Red. masses --      3.0973                 3.0554                 1.2154
 Frc consts  --      0.1536                 0.3395                 0.1566
 IR Inten    --      9.5309                15.2607                98.3700

                      7                      8                      9
                      A                      A                      A
 Frequencies --    622.0366               639.0325               871.2718
 Red. masses --      3.8590                 2.2173                 2.6210
 Frc consts  --      0.8797                 0.5335                 1.1723
 IR Inten    --      3.3864                 2.0364                 9.1571

                     10                     11                     12
                      A                      A                      A
 Frequencies --    994.0866              1052.5209              1102.6428
 Red. masses --      1.8082                 1.7241                 2.9393
 Frc consts  --      1.0528                 1.1253                 2.1055
 IR Inten    --      9.3945                 9.1767                 0.6747

                     13                     14                     15
                      A                      A                      A
 Frequencies --   1149.2657              1169.1075              1273.7831
 Red. masses --      1.2869                 1.7496                 2.0066
 Frc consts  --      1.0014                 1.4089                 1.9182
 IR Inten    --      0.3684                49.4428               121.9608

                     16                     17                     18
                      A                      A                      A
 Frequencies --   1397.1132              1436.1789              1467.4293
 Red. masses --      1.2458                 1.1731                 1.0449
 Frc consts  --      1.4327                 1.4257                 1.3257
 IR Inten    --     33.6999                24.1634                10.5234

                     19                     20                     21
                      A                      A                      A
 Frequencies --   1483.1433              1492.6359              1499.7821
 Red. masses --      1.0850                 1.1390                 1.0427
 Frc consts  --      1.4062                 1.4951                 1.3819
 IR Inten    --     26.7667                45.0254                 8.3109

                     22                     23                     24
                      A                      A                      A
 Frequencies --   1566.2468              1742.9980              3024.1876
 Red. masses --      1.7368                 8.4638                 1.0366
 Frc consts  --      2.5103                15.1499                 5.5856
 IR Inten    --    193.1014               343.2684                64.2528

                     25                     26                     27
                      A                      A                      A
 Frequencies --   3041.2510              3073.7810              3112.4064
 Red. masses --      1.0352                 1.1054                 1.1016
 Frc consts  --      5.6413                 6.1532                 6.2873
 IR Inten    --      9.8098                41.1543                13.5331

                     28                     29                     30
                      A                      A                      A
 Frequencies --   3116.9215              3145.2598              3641.4444
 Red. masses --      1.1028                 1.0976                 1.0780
 Frc consts  --      6.3127                 6.3973                 8.4220
 IR Inten    --     19.6388                 2.6366                31.8205

 - Thermochemistry -
 -------------------
 Temperature   298.150 Kelvin.  Pressure   1.00000 Atm.
 Atom     1 has atomic number  6 and mass  12.00000

 Molecular mass:    73.05276 amu.
 Principal axes and moments of inertia in atomic units:
                           1         2         3
     Eigenvalues --   180.43526 470.89169 628.77785
           X            0.99935  -0.03610   0.00003
           Y            0.03610   0.99935  -0.00012
           Z           -0.00002   0.00012   1.00000
 This molecule is an asymmetric top.
 Rotational symmetry number  1.
 Rotational temperatures (Kelvin)      0.48003     0.18394     0.13775
 Rotational constants (GHZ):          10.00215     3.83260     2.87024
 Zero-point vibrational energy     266900.9 (Joules/Mol)
                                   63.79084 (Kcal/Mol)
 Warning -- explicit consideration of   6 degrees of freedom as
           vibrations may cause significant error
 Vibrational temperatures:     85.98   119.35   248.92   417.47   624.83
          (Kelvin)            672.86   894.97   919.43  1253.57  1430.27
                             1514.34  1586.46  1653.54  1682.08  1832.69
                             2010.13  2066.34  2111.30  2133.91  2147.57
                             2157.85  2253.48  2507.79  4351.13  4375.68
                             4422.49  4478.06  4484.55  4525.33  5239.23

 Zero-point correction=                           0.101657 (Hartree/Particle)
 Thermal correction to Energy=                    0.108168
 Thermal correction to Enthalpy=                  0.109113
 Thermal correction to Gibbs Free Energy=         0.071373
 Sum of electronic and zero-point Energies=           -248.501078
 Sum of electronic and thermal Energies=              -248.494567
 Sum of electronic and thermal Enthalpies=            -248.493623
 Sum of electronic and thermal Free Energies=         -248.531362

                     E (Thermal)             CV                S
                      KCal/Mol        Cal/Mol-Kelvin    Cal/Mol-Kelvin
 Total                   67.877             20.877             79.430
 Electronic               0.000              0.000              0.000
 Translational            0.889              2.981             38.782
 Rotational               0.889              2.981             25.483
 Vibrational             66.099             14.915             15.165
 Vibration     1          0.597              1.973              4.465
 Vibration     2          0.600              1.961              3.820
 Vibration     3          0.627              1.876              2.403
 Vibration     4          0.686              1.692              1.473
 Vibration     5          0.795              1.396              0.845
 Vibration     6          0.825              1.322              0.744

 Optimization completed.
    -- Stationary point found.
 Normal termination of Gaussian 16 at Thu Aug  3 16:07:55 2023.
