 Gaussian 16, Revision C.01,
 Gaussian 16:  ES64L-G16RevC.01  3-Jul-2019

 --------------------------------------------
 # opt freq b3lyp/6-311g** scrf(solvent=CCl4)
 --------------------------------------------

 -------------------
 Title Card Required
 -------------------
 Symbolic Z-matrix:
 Charge =  0 Multiplicity = 1

 SCF Done:  E(RB3LYP) =  -193.167290073     A.U. after   12 cycles
 SCF Done:  E(RB3LYP) =  -193.208528991     A.U. after   11 cycles
 SCF Done:  E(RB3LYP) =  -193.214519916     A.U. after   10 cycles
 SCF Done:  E(RB3LYP) =  -193.215091683     A.U. after   10 cycles
 SCF Done:  E(RB3LYP) =  -193.213109152     A.U. after   11 cycles
 SCF Done:  E(RB3LYP) =  -193.215478092     A.U. after    9 cycles
 SCF Done:  E(RB3LYP) =  -193.215604877     A.U. after    9 cycles
 SCF Done:  E(RB3LYP) =  -193.215657134     A.U. after    9 cycles
 SCF Done:  E(RB3LYP) =  -193.215671181     A.U. after    9 cycles
 SCF Done:  E(RB3LYP) =  -193.215671729     A.U. after    7 cycles
 SCF Done:  E(RB3LYP) =  -193.215671764     A.U. after    6 cycles
 SCF Done:  E(RB3LYP) =  -193.215671770     A.U. after    6 cycles
 Optimization completed.
    -- Stationary point found.
 Normal termination of Gaussian 16 at Thu Aug  3 16:04:36 2023.

 ----------------------------------------------------------------------
 #N Geom=AllCheck Guess=TCheck SCRF=Check GenChk RB3LYP/6-311G(d,p) Fre
 q
 ----------------------------------------------------------------------

 Structure from the checkpoint file:  "/kimariyb/g16/scratch/Gau-42512.chk"
 -------------------
 Title Card Required
 -------------------
 Charge =  0 Multiplicity = 1

                         Standard orientation:
 ---------------------------------------------------------------------
 Center     Atomic      Atomic             Coordinates (Angstroms)
 Number     Number       Type             X           Y           Z
 ---------------------------------------------------------------------
      1          6           0       -1.290021   -0.613117   -0.001777
      2          1           0       -1.293775   -1.342687   -0.816986
      3          1           0       -1.377588   -1.178172    0.931971
      4          1           0       -2.141506    0.058924   -0.099594
      5          6           0        0.000000    0.184748    0.000102
      6          8           0        0.000057    1.396688   -0.000012
      7          6           0        1.289976   -0.613201    0.001829
      8          1           0        1.293221   -1.344310    0.815610
      9          1           0        1.378043   -1.176505   -0.932974
     10          1           0        2.141414    0.058668    0.101148
 ---------------------------------------------------------------------

 SCF Done:  E(RB3LYP) =  -193.215671770     A.U. after    1 cycles

 The electronic state is 1-A.
 Alpha  occ. eigenvalues --  -19.10876 -10.26443 -10.17387 -10.17386  -1.04750
 Alpha  occ. eigenvalues --   -0.77152  -0.71300  -0.53558  -0.46437  -0.46271
 Alpha  occ. eigenvalues --   -0.45575  -0.40544  -0.40064  -0.38238  -0.35634
 Alpha  occ. eigenvalues --   -0.25454
 Alpha virt. eigenvalues --   -0.01932   0.03812   0.08826   0.10188   0.10249
 Alpha virt. eigenvalues --    0.12876   0.13530   0.17125   0.23665   0.25519
 Alpha virt. eigenvalues --    0.28152   0.30775   0.34808   0.38715   0.41407

 Mulliken charges:
               1
     1  C   -0.318069
     2  H    0.126881
     3  H    0.132618
     4  H    0.130671
     5  C    0.171245
     6  O   -0.315459
     7  C   -0.318063
     8  H    0.126851
     9  H    0.132643
    10  H    0.130680
 Sum of Mulliken charges =  -0.00000

 Dipole moment (field-independent basis, Debye):
    X=             -0.0001    Y=             -3.1812    Z=             -0.0005  Tot=              3.1812
 Quadrupole moment (field-independent basis, Debye-Ang):
   XX=            -23.8701   YY=            -28.8071   ZZ=            -24.1827
   XY=              0.0000   XZ=             -0.0743   YZ=              0.0002

  Exact polarizability:      43.910       0.000      45.431      -0.052       0.001      31.859
 Approx polarizability:      47.602       0.001      64.241      -0.133       0.002      41.123

                      1                      2                      3
                      A                      A                      A
 Frequencies --     79.5688               137.0906               380.3720
 Red. masses --      1.0176                 1.1252                 2.1928
 Frc consts  --      0.0038                 0.0125                 0.1869
 IR Inten    --      0.0149                 0.0731                 1.4923

                      4                      5                      6
                      A                      A                      A
 Frequencies --    492.8618               535.3249               782.4448
 Red. masses --      1.9909                 3.5361                 3.5790
 Frc consts  --      0.2849                 0.5970                 1.2910
 IR Inten    --      0.4427                18.9057                 1.7256

                      7                      8                      9
                      A                      A                      A
 Frequencies --    883.1924               887.8769              1083.4112
 Red. masses --      1.2138                 1.5748                 1.5607
 Frc consts  --      0.5578                 0.7314                 1.0794
 IR Inten    --      0.0679                10.5214                 0.0420

                     10                     11                     12
                      A                      A                      A
 Frequencies --   1117.3968              1231.0608              1381.4482
 Red. masses --      1.9843                 2.7894                 1.2249
 Frc consts  --      1.4597                 2.4907                 1.3772
 IR Inten    --      4.6573                89.2262                26.0953

                     13                     14                     15
                      A                      A                      A
 Frequencies --   1384.6827              1457.8323              1460.6634
 Red. masses --      1.4081                 1.0432                 1.0524
 Frc consts  --      1.5906                 1.3062                 1.3229
 IR Inten    --     77.6284                 1.6937                 6.6710

                     16                     17                     18
                      A                      A                      A
 Frequencies --   1465.6596              1482.7568              1788.2926
 Red. masses --      1.0669                 1.0460                 9.6665
 Frc consts  --      1.3503                 1.3550                18.2136
 IR Inten    --     29.7146                24.5863               226.7129

                     19                     20                     21
                      A                      A                      A
 Frequencies --   3025.6773              3032.3933              3082.3009
 Red. masses --      1.0371                 1.0371                 1.0985
 Frc consts  --      5.5937                 5.6189                 6.1489
 IR Inten    --      2.1875                 5.1785                 0.5730

                     22                     23                     24
                      A                      A                      A
 Frequencies --   3089.0475              3137.6169              3138.8708
 Red. masses --      1.0987                 1.1023                 1.1027
 Frc consts  --      6.1772                 6.3936                 6.4009
 IR Inten    --     23.6680                17.6911                12.5843

 - Thermochemistry -
 -------------------
 Temperature   298.150 Kelvin.  Pressure   1.00000 Atm.
 Atom     1 has atomic number  6 and mass  12.00000

 Molecular mass:    58.04186 amu.
 Principal axes and moments of inertia in atomic units:
                           1         2         3
     Eigenvalues --   177.76690 212.46700 367.97828
           X            1.00000  -0.00001  -0.00052
           Y            0.00001   1.00000   0.00001
           Z            0.00052  -0.00001   1.00000
 This molecule is an asymmetric top.
 Rotational symmetry number  1.
 Rotational temperatures (Kelvin)      0.48723     0.40766     0.23538
 Rotational constants (GHZ):          10.15229     8.49422     4.90448
 Zero-point vibrational energy     218544.8 (Joules/Mol)
                                   52.23347 (Kcal/Mol)
 Warning -- explicit consideration of   5 degrees of freedom as
           vibrations may cause significant error
 Vibrational temperatures:    114.48   197.24   547.27   709.12   770.21
          (Kelvin)           1125.76  1270.72  1277.46  1558.79  1607.68
                             1771.22  1987.60  1992.25  2097.50  2101.57
                             2108.76  2133.36  2572.95  4353.27  4362.94
                             4434.74  4444.45  4514.33  4516.13

 Zero-point correction=                           0.083239 (Hartree/Particle)
 Thermal correction to Energy=                    0.088572
 Thermal correction to Enthalpy=                  0.089517
 Thermal correction to Gibbs Free Energy=         0.055283
 Sum of electronic and zero-point Energies=           -193.132432
 Sum of electronic and thermal Energies=              -193.127099
 Sum of electronic and thermal Enthalpies=            -193.126155
 Sum of electronic and thermal Free Energies=         -193.160389

                     E (Thermal)             CV                S
                      KCal/Mol        Cal/Mol-Kelvin    Cal/Mol-Kelvin
 Total                   55.580             16.844             72.052
 Electronic               0.000              0.000              0.000
 Translational            0.889              2.981             38.096
 Rotational               0.889              2.981             24.145
 Vibrational             53.803             10.883              9.810
 Vibration     1          0.600              1.963              3.901
 Vibration     2          0.614              1.916              2.844
 Vibration     3          0.750              1.512              1.038
 Vibration     4          0.849              1.266              0.676
 Vibration     5          0.890              1.172              0.575

                           ! Non-Optimized Parameters !
 Normal termination of Gaussian 16 at Thu Aug  3 16:04:57 2023.
