 Gaussian 16, Revision C.01,
 Gaussian 16:  ES64L-G16RevC.01  3-Jul-2019

 --------------------------------------------
 # opt freq b3lyp/6-311g** scrf(solvent=CCl4)
 --------------------------------------------

 -------------------
 Title Card Required
 -------------------
 Symbolic Z-matrix:
 Charge =  0 Multiplicity = 1

 SCF Done:  E(RB3LYP) =  -153.828471440     A.U. after   12 cycles
 SCF Done:  E(RB3LYP) =  -153.870908756     A.U. after   11 cycles
 SCF Done:  E(RB3LYP) =  -153.877267693     A.U. after   11 cycles
 SCF Done:  E(RB3LYP) =  -153.870110371     A.U. after   11 cycles
 SCF Done:  E(RB3LYP) =  -153.878281434     A.U. after   10 cycles
 SCF Done:  E(RB3LYP) =  -153.878888745     A.U. after   10 cycles
 SCF Done:  E(RB3LYP) =  -153.879174462     A.U. after   10 cycles
 SCF Done:  E(RB3LYP) =  -153.879252417     A.U. after   10 cycles
 SCF Done:  E(RB3LYP) =  -153.879270690     A.U. after    9 cycles
 SCF Done:  E(RB3LYP) =  -153.879271235     A.U. after    8 cycles
 Optimization completed.
    -- Stationary point found.
 Normal termination of Gaussian 16 at Thu Aug  3 16:00:40 2023.

 ----------------------------------------------------------------------
 #N Geom=AllCheck Guess=TCheck SCRF=Check GenChk RB3LYP/6-311G(d,p) Fre
 q
 ----------------------------------------------------------------------

 Structure from the checkpoint file:  "/kimariyb/g16/scratch/Gau-38352.chk"
 -------------------
 Title Card Required
 -------------------
 Charge =  0 Multiplicity = 1

                         Standard orientation:
 ---------------------------------------------------------------------
 Center     Atomic      Atomic             Coordinates (Angstroms)
 Number     Number       Type             X           Y           Z
 ---------------------------------------------------------------------
      1          6           0        1.167993   -0.148794   -0.000007
      2          1           0        1.705722    0.223536   -0.878696
      3          1           0        1.705774    0.224222    0.878371
      4          1           0        1.157511   -1.238545    0.000473
      5          6           0       -0.233074    0.397078   -0.000032
      6          1           0       -0.302211    1.507048    0.000085
      7          8           0       -1.234538   -0.275746    0.000001
 ---------------------------------------------------------------------

 SCF Done:  E(RB3LYP) =  -153.879271235     A.U. after    1 cycles

 The electronic state is 1-A.
 Alpha  occ. eigenvalues --  -19.12127 -10.26560 -10.17930  -1.05618  -0.75600
 Alpha  occ. eigenvalues --   -0.58352  -0.48331  -0.44775  -0.44261  -0.40170
 Alpha  occ. eigenvalues --   -0.37159  -0.26303
 Alpha virt. eigenvalues --   -0.02916   0.05202   0.07820   0.10653   0.11755
 Alpha virt. eigenvalues --    0.21046   0.22503   0.30528   0.32705   0.38992
 Alpha virt. eigenvalues --    0.41977   0.43810   0.52284   0.56199   0.56432

 Mulliken charges:
               1
     1  C   -0.325941
     2  H    0.133862
     3  H    0.133833
     4  H    0.130444
     5  C    0.153684
     6  H    0.073896
     7  O   -0.299778
 Sum of Mulliken charges =  -0.00000

 Dipole moment (field-independent basis, Debye):
    X=              2.6777    Y=              1.2373    Z=             -0.0001  Tot=              2.9498
 Quadrupole moment (field-independent basis, Debye-Ang):
   XX=            -20.9558   YY=            -17.9585   ZZ=            -17.8206
   XY=             -0.8773   XZ=             -0.0002   YZ=             -0.0001

  Exact polarizability:      33.780       1.939      29.681      -0.000       0.000      20.550
 Approx polarizability:      44.310       7.276      37.008      -0.001       0.000      25.880

                      1                      2                      3
                      A                      A                      A
 Frequencies --    165.1213               509.0614               779.8349
 Red. masses --      1.2405                 2.5291                 1.1200
 Frc consts  --      0.0199                 0.3862                 0.4013
 IR Inten    --      0.5114                16.9692                 1.2242

                      4                      5                      6
                      A                      A                      A
 Frequencies --    886.5251              1126.4465              1137.7649
 Red. masses --      2.1710                 2.0895                 1.7814
 Frc consts  --      1.0053                 1.5621                 1.3587
 IR Inten    --     10.6401                30.3675                 0.8117

                      7                      8                      9
                      A                      A                      A
 Frequencies --   1374.2520              1426.8332              1455.2055
 Red. masses --      1.2550                 1.1937                 1.0649
 Frc consts  --      1.3964                 1.4319                 1.3286
 IR Inten    --     35.4955                13.1627                28.0081

                     10                     11                     12
                      A                      A                      A
 Frequencies --   1464.7018              1808.6553              2871.2299
 Red. masses --      1.0472                 9.1791                 1.0822
 Frc consts  --      1.3237                17.6913                 5.2565
 IR Inten    --     13.5068               225.1056               156.1844

                     13                     14                     15
                      A                      A                      A
 Frequencies --   3022.4731              3077.7682              3135.0298
 Red. masses --      1.0366                 1.0983                 1.1030
 Frc consts  --      5.5791                 6.1300                 6.3871
 IR Inten    --      1.6950                 9.0353                14.9963

 - Thermochemistry -
 -------------------
 Temperature   298.150 Kelvin.  Pressure   1.00000 Atm.
 Atom     1 has atomic number  6 and mass  12.00000

 Molecular mass:    44.02621 amu.
 Principal axes and moments of inertia in atomic units:
                           1         2         3
     Eigenvalues --    31.52358 178.13749 198.54991
           X            0.99967  -0.02550   0.00000
           Y            0.02550   0.99967   0.00001
           Z           -0.00000  -0.00001   1.00000
 This molecule is an asymmetric top.
 Rotational symmetry number  1.
 Rotational temperatures (Kelvin)      2.74759     0.48622     0.43623
 Rotational constants (GHZ):          57.25051    10.13117     9.08961
 Zero-point vibrational energy     144992.8 (Joules/Mol)
                                   34.65411 (Kcal/Mol)
 Warning -- explicit consideration of   2 degrees of freedom as
           vibrations may cause significant error
 Vibrational temperatures:    237.57   732.43  1122.01  1275.51  1620.71
          (Kelvin)           1636.99  1977.24  2052.89  2093.72  2107.38
                             2602.25  4131.06  4348.66  4428.22  4510.61

 Zero-point correction=                           0.055225 (Hartree/Particle)
 Thermal correction to Energy=                    0.059105
 Thermal correction to Enthalpy=                  0.060050
 Thermal correction to Gibbs Free Energy=         0.030313
 Sum of electronic and zero-point Energies=           -153.824046
 Sum of electronic and thermal Energies=              -153.820166
 Sum of electronic and thermal Enthalpies=            -153.819222
 Sum of electronic and thermal Free Energies=         -153.848958

                     E (Thermal)             CV                S
                      KCal/Mol        Cal/Mol-Kelvin    Cal/Mol-Kelvin
 Total                   37.089             11.197             62.585
 Electronic               0.000              0.000              0.000
 Translational            0.889              2.981             37.273
 Rotational               0.889              2.981             21.638
 Vibrational             35.312              5.235              3.674
 Vibration     1          0.624              1.885              2.490
 Vibration     2          0.864              1.230              0.636

 Optimization completed.
    -- Stationary point found.
 Normal termination of Gaussian 16 at Thu Aug  3 16:00:50 2023.
