 Gaussian 16, Revision C.01,
 Gaussian 16:  ES64L-G16RevC.01  3-Jul-2019

 --------------------------------------------
 # opt freq b3lyp/6-311g** scrf(solvent=CCl4)
 --------------------------------------------

 -------------------
 Title Card Required
 -------------------
 Symbolic Z-matrix:
 Charge =  0 Multiplicity = 1

 SCF Done:  E(RB3LYP) =  -268.388984126     A.U. after   13 cycles
 SCF Done:  E(RB3LYP) =  -268.436696012     A.U. after   11 cycles
 SCF Done:  E(RB3LYP) =  -268.446238829     A.U. after   11 cycles
 SCF Done:  E(RB3LYP) =  -268.447478597     A.U. after   11 cycles
 SCF Done:  E(RB3LYP) =  -268.444999531     A.U. after   11 cycles
 SCF Done:  E(RB3LYP) =  -268.448482266     A.U. after   10 cycles
 SCF Done:  E(RB3LYP) =  -268.449639547     A.U. after   11 cycles
 SCF Done:  E(RB3LYP) =  -268.453967103     A.U. after   12 cycles
 SCF Done:  E(RB3LYP) =  -268.456657484     A.U. after   13 cycles
 SCF Done:  E(RB3LYP) =  -268.436739966     A.U. after   12 cycles
 SCF Done:  E(RB3LYP) =  -268.469673696     A.U. after    6 cycles
 SCF Done:  E(RB3LYP) =  -268.469673878     A.U. after    7 cycles
 SCF Done:  E(RB3LYP) =  -268.469674004     A.U. after    7 cycles
 SCF Done:  E(RB3LYP) =  -268.469674077     A.U. after    6 cycles
 SCF Done:  E(RB3LYP) =  -268.469674119     A.U. after    6 cycles
 SCF Done:  E(RB3LYP) =  -268.469674156     A.U. after    7 cycles
 SCF Done:  E(RB3LYP) =  -268.469674193     A.U. after    7 cycles
 SCF Done:  E(RB3LYP) =  -268.469674227     A.U. after    7 cycles
 SCF Done:  E(RB3LYP) =  -268.469674251     A.U. after    6 cycles
 Optimization completed.
    -- Stationary point found.
 Normal termination of Gaussian 16 at Thu Aug  3 16:03:14 2023.

 ----------------------------------------------------------------------
 #N Geom=AllCheck Guess=TCheck SCRF=Check GenChk RB3LYP/6-311G(d,p) Fre
 q
 ----------------------------------------------------------------------

 Structure from the checkpoint file:  "/kimariyb/g16/scratch/Gau-39616.chk"
 -------------------
 Title Card Required
 -------------------
 Charge =  0 Multiplicity = 1

                         Standard orientation:
 ---------------------------------------------------------------------
 Center     Atomic      Atomic             Coordinates (Angstroms)
 Number     Number       Type             X           Y           Z
 ---------------------------------------------------------------------
      1          6           0       -1.799046   -0.520721   -0.000007
      2          1           0       -1.883363   -1.162798   -0.879424
      3          1           0       -1.884362   -1.159993    0.881454
      4          1           0       -2.596285    0.219181   -0.001439
      5          6           0       -0.463358    0.177590   -0.000054
      6          8           0       -0.292757    1.372262   -0.000016
      7          8           0        0.548454   -0.716399   -0.000087
      8          6           0        1.878121   -0.161480    0.000061
      9          1           0        2.036955    0.450548    0.888927
     10          1           0        2.550002   -1.016529    0.000209
     11          1           0        2.037176    0.450359   -0.888899
 ---------------------------------------------------------------------

 SCF Done:  E(RB3LYP) =  -268.469674251     A.U. after    1 cycles

 The electronic state is 1-A.
 Alpha  occ. eigenvalues --  -19.16395 -19.10645 -10.30119 -10.22368 -10.17944
 Alpha  occ. eigenvalues --   -1.10788  -1.02100  -0.77139  -0.70449  -0.56972
 Alpha  occ. eigenvalues --   -0.50104  -0.49138  -0.48119  -0.43442  -0.42439
 Alpha  occ. eigenvalues --   -0.40468  -0.37495  -0.36168  -0.30971  -0.28105
 Alpha virt. eigenvalues --    0.00592   0.04995   0.06543   0.10671   0.10881
 Alpha virt. eigenvalues --    0.10968   0.12483   0.13208   0.20341   0.25552
 Alpha virt. eigenvalues --    0.28003   0.29995   0.31865   0.32017   0.37140

 Mulliken charges:
               1
     1  C   -0.289573
     2  H    0.139061
     3  H    0.139080
     4  H    0.135722
     5  C    0.312784
     6  O   -0.366853
     7  O   -0.325197
     8  C   -0.116402
     9  H    0.123447
    10  H    0.124484
    11  H    0.123446
 Sum of Mulliken charges =   0.00000

 Dipole moment (field-independent basis, Debye):
    X=              0.4354    Y=             -1.9418    Z=              0.0006  Tot=              1.9900
 Quadrupole moment (field-independent basis, Debye-Ang):
   XX=            -23.8582   YY=            -35.1325   ZZ=            -29.1572
   XY=              1.4627   XZ=             -0.0005   YZ=             -0.0002

  Exact polarizability:      51.827       0.192      44.379      -0.001      -0.001      33.406
 Approx polarizability:      54.692      -1.054      64.430      -0.002      -0.001      42.146

                      1                      2                      3
                      A                      A                      A
 Frequencies --     33.3149               118.5860               178.7666
 Red. masses --      1.0823                 1.0873                 2.8595
 Frc consts  --      0.0007                 0.0090                 0.0538
 IR Inten    --      0.6894                 0.5632                 7.9422

                      4                      5                      6
                      A                      A                      A
 Frequencies --    282.7829               423.8736               607.3416
 Red. masses --      3.1414                 3.2296                 2.6130
 Frc consts  --      0.1480                 0.3419                 0.5679
 IR Inten    --     15.0362                 7.6849                 7.1123

                      7                      8                      9
                      A                      A                      A
 Frequencies --    644.1018               858.7969               981.2098
 Red. masses --      4.4054                 3.7535                 2.3854
 Frc consts  --      1.0768                 1.6311                 1.3531
 IR Inten    --      6.9706                24.5374                 2.0619

                     10                     11                     12
                      A                      A                      A
 Frequencies --   1064.7402              1065.9503              1171.7837
 Red. masses --      1.8097                 3.2207                 1.2816
 Frc consts  --      1.2088                 2.1562                 1.0368
 IR Inten    --      9.0304                97.0900                 1.2575

                     13                     14                     15
                      A                      A                      A
 Frequencies --   1207.3926              1260.7748              1394.9709
 Red. masses --      1.5009                 3.7767                 1.3222
 Frc consts  --      1.2892                 3.5370                 1.5159
 IR Inten    --      1.3242               394.3173                59.1778

                     16                     17                     18
                      A                      A                      A
 Frequencies --   1467.2264              1471.5821              1472.8225
 Red. masses --      1.0531                 1.0458                 1.1972
 Frc consts  --      1.3358                 1.3344                 1.5300
 IR Inten    --     16.8965                 9.8952                23.3807

                     19                     20                     21
                      A                      A                      A
 Frequencies --   1480.8698              1495.0076              1798.8883
 Red. masses --      1.0447                 1.0524                10.5445
 Frc consts  --      1.3498                 1.3859                20.1041
 IR Inten    --     12.0284                 9.9519               312.5681

                     22                     23                     24
                      A                      A                      A
 Frequencies --   3049.2316              3051.0416              3111.3602
 Red. masses --      1.0302                 1.0361                 1.1001
 Frc consts  --      5.6436                 5.6824                 6.2748
 IR Inten    --     26.2873                 7.4088                 7.1448

                     25                     26                     27
                      A                      A                      A
 Frequencies --   3121.0408              3157.2961              3157.7268
 Red. masses --      1.1072                 1.1037                 1.1055
 Frc consts  --      6.3545                 6.4824                 6.4945
 IR Inten    --     27.9987                 1.4693                26.5206

 - Thermochemistry -
 -------------------
 Temperature   298.150 Kelvin.  Pressure   1.00000 Atm.
 Atom     1 has atomic number  6 and mass  12.00000

 Molecular mass:    74.03678 amu.
 Principal axes and moments of inertia in atomic units:
                           1         2         3
     Eigenvalues --   176.61216 435.91819 589.99565
           X            0.99914   0.04155  -0.00001
           Y           -0.04155   0.99914  -0.00001
           Z            0.00000   0.00001   1.00000
 This molecule is an asymmetric top.
 Rotational symmetry number  1.
 Rotational temperatures (Kelvin)      0.49042     0.19869     0.14680
 Rotational constants (GHZ):          10.21867     4.14009     3.05891
 Zero-point vibrational energy     234040.3 (Joules/Mol)
                                   55.93697 (Kcal/Mol)
 Warning -- explicit consideration of   6 degrees of freedom as
           vibrations may cause significant error
 Vibrational temperatures:     47.93   170.62   257.21   406.86   609.86
          (Kelvin)            873.83   926.72  1235.62  1411.74  1531.92
                             1533.66  1685.94  1737.17  1813.97  2007.05
                             2111.01  2117.28  2119.06  2130.64  2150.98
                             2588.20  4387.16  4389.77  4476.55  4490.48
                             4542.64  4543.26

 Zero-point correction=                           0.089141 (Hartree/Particle)
 Thermal correction to Energy=                    0.095405
 Thermal correction to Enthalpy=                  0.096349
 Thermal correction to Gibbs Free Energy=         0.058787
 Sum of electronic and zero-point Energies=           -268.380533
 Sum of electronic and thermal Energies=              -268.374270
 Sum of electronic and thermal Enthalpies=            -268.373325
 Sum of electronic and thermal Free Energies=         -268.410888

                     E (Thermal)             CV                S
                      KCal/Mol        Cal/Mol-Kelvin    Cal/Mol-Kelvin
 Total                   59.867             19.538             79.056
 Electronic               0.000              0.000              0.000
 Translational            0.889              2.981             38.822
 Rotational               0.889              2.981             25.322
 Vibrational             58.090             13.576             14.913
 Vibration     1          0.594              1.983              5.622
 Vibration     2          0.609              1.934              3.123
 Vibration     3          0.629              1.868              2.341
 Vibration     4          0.682              1.706              1.517
 Vibration     5          0.786              1.418              0.879
 Vibration     6          0.966              1.016              0.437

                           ! Non-Optimized Parameters !
 Normal termination of Gaussian 16 at Thu Aug  3 16:03:43 2023.
